<?xml version="1.0"?>
<VTKFile type="StructuredGrid" version="0.1" byte_order="LittleEndian">
  <StructuredGrid WholeExtent="0 50 0 20 0 5 0 50 0 20 0 5">
    <Piece Extent="0 50 0 20 0 5 0 50 0 20 0 5">
      <Points>
        <DataArray type="Float64" NumberOfComponents="3" format="ascii">
  0.0000000E+00  0.0000000E+00  0.0000000E+00
  1.0000000E-05  0.0000000E+00  0.0000000E+00
  2.0000000E-05  0.0000000E+00  0.0000000E+00
  3.0000000E-05  0.0000000E+00  0.0000000E+00
  4.0000000E-05  0.0000000E+00  0.0000000E+00
  5.0000000E-05  0.0000000E+00  0.0000000E+00
  6.0000000E-05  0.0000000E+00  0.0000000E+00
  7.0000000E-05  0.0000000E+00  0.0000000E+00
  8.0000000E-05  0.0000000E+00  0.0000000E+00
  9.0000000E-05  0.0000000E+00  0.0000000E+00
  1.0000000E-04  0.0000000E+00  0.0000000E+00
  1.1000000E-04  0.0000000E+00  0.0000000E+00
  1.2000000E-04  0.0000000E+00  0.0000000E+00
  1.3000000E-04  0.0000000E+00  0.0000000E+00
  1.4000000E-04  0.0000000E+00  0.0000000E+00
  1.5000000E-04  0.0000000E+00  0.0000000E+00
  1.6000000E-04  0.0000000E+00  0.0000000E+00
  1.7000000E-04  0.0000000E+00  0.0000000E+00
  1.8000000E-04  0.0000000E+00  0.0000000E+00
  1.9000000E-04  0.0000000E+00  0.0000000E+00
  2.0000000E-04  0.0000000E+00  0.0000000E+00
  2.1000000E-04  0.0000000E+00  0.0000000E+00
  2.2000000E-04  0.0000000E+00  0.0000000E+00
  2.3000000E-04  0.0000000E+00  0.0000000E+00
  2.4000000E-04  0.0000000E+00  0.0000000E+00
  2.5000000E-04  0.0000000E+00  0.0000000E+00
  2.6000000E-04  0.0000000E+00  0.0000000E+00
  2.7000000E-04  0.0000000E+00  0.0000000E+00
  2.8000000E-04  0.0000000E+00  0.0000000E+00
  2.9000000E-04  0.0000000E+00  0.0000000E+00
  3.0000000E-04  0.0000000E+00  0.0000000E+00
  3.1000000E-04  0.0000000E+00  0.0000000E+00
  3.2000000E-04  0.0000000E+00  0.0000000E+00
  3.3000000E-04  0.0000000E+00  0.0000000E+00
  3.4000000E-04  0.0000000E+00  0.0000000E+00
  3.5000000E-04  0.0000000E+00  0.0000000E+00
  3.6000000E-04  0.0000000E+00  0.0000000E+00
  3.7000000E-04  0.0000000E+00  0.0000000E+00
  3.8000000E-04  0.0000000E+00  0.0000000E+00
  3.9000000E-04  0.0000000E+00  0.0000000E+00
  4.0000000E-04  0.0000000E+00  0.0000000E+00
  4.1000000E-04  0.0000000E+00  0.0000000E+00
  4.2000000E-04  0.0000000E+00  0.0000000E+00
  4.3000000E-04  0.0000000E+00  0.0000000E+00
  4.4000000E-04  0.0000000E+00  0.0000000E+00
  4.5000000E-04  0.0000000E+00  0.0000000E+00
  4.6000000E-04  0.0000000E+00  0.0000000E+00
  4.7000000E-04  0.0000000E+00  0.0000000E+00
  4.8000000E-04  0.0000000E+00  0.0000000E+00
  4.9000000E-04  0.0000000E+00  0.0000000E+00
  5.0000000E-04  0.0000000E+00  0.0000000E+00
  0.0000000E+00  1.0000000E-05  0.0000000E+00
  1.0000000E-05  1.0000000E-05  0.0000000E+00
  2.0000000E-05  1.0000000E-05  0.0000000E+00
  3.0000000E-05  1.0000000E-05  0.0000000E+00
  4.0000000E-05  1.0000000E-05  0.0000000E+00
  5.0000000E-05  1.0000000E-05  0.0000000E+00
  6.0000000E-05  1.0000000E-05  0.0000000E+00
  7.0000000E-05  1.0000000E-05  0.0000000E+00
  8.0000000E-05  1.0000000E-05  0.0000000E+00
  9.0000000E-05  1.0000000E-05  0.0000000E+00
  1.0000000E-04  1.0000000E-05  0.0000000E+00
  1.1000000E-04  1.0000000E-05  0.0000000E+00
  1.2000000E-04  1.0000000E-05  0.0000000E+00
  1.3000000E-04  1.0000000E-05  0.0000000E+00
  1.4000000E-04  1.0000000E-05  0.0000000E+00
  1.5000000E-04  1.0000000E-05  0.0000000E+00
  1.6000000E-04  1.0000000E-05  0.0000000E+00
  1.7000000E-04  1.0000000E-05  0.0000000E+00
  1.8000000E-04  1.0000000E-05  0.0000000E+00
  1.9000000E-04  1.0000000E-05  0.0000000E+00
  2.0000000E-04  1.0000000E-05  0.0000000E+00
  2.1000000E-04  1.0000000E-05  0.0000000E+00
  2.2000000E-04  1.0000000E-05  0.0000000E+00
  2.3000000E-04  1.0000000E-05  0.0000000E+00
  2.4000000E-04  1.0000000E-05  0.0000000E+00
  2.5000000E-04  1.0000000E-05  0.0000000E+00
  2.6000000E-04  1.0000000E-05  0.0000000E+00
  2.7000000E-04  1.0000000E-05  0.0000000E+00
  2.8000000E-04  1.0000000E-05  0.0000000E+00
  2.9000000E-04  1.0000000E-05  0.0000000E+00
  3.0000000E-04  1.0000000E-05  0.0000000E+00
  3.1000000E-04  1.0000000E-05  0.0000000E+00
  3.2000000E-04  1.0000000E-05  0.0000000E+00
  3.3000000E-04  1.0000000E-05  0.0000000E+00
  3.4000000E-04  1.0000000E-05  0.0000000E+00
  3.5000000E-04  1.0000000E-05  0.0000000E+00
  3.6000000E-04  1.0000000E-05  0.0000000E+00
  3.7000000E-04  1.0000000E-05  0.0000000E+00
  3.8000000E-04  1.0000000E-05  0.0000000E+00
  3.9000000E-04  1.0000000E-05  0.0000000E+00
  4.0000000E-04  1.0000000E-05  0.0000000E+00
  4.1000000E-04  1.0000000E-05  0.0000000E+00
  4.2000000E-04  1.0000000E-05  0.0000000E+00
  4.3000000E-04  1.0000000E-05  0.0000000E+00
  4.4000000E-04  1.0000000E-05  0.0000000E+00
  4.5000000E-04  1.0000000E-05  0.0000000E+00
  4.6000000E-04  1.0000000E-05  0.0000000E+00
  4.7000000E-04  1.0000000E-05  0.0000000E+00
  4.8000000E-04  1.0000000E-05  0.0000000E+00
  4.9000000E-04  1.0000000E-05  0.0000000E+00
  5.0000000E-04  1.0000000E-05  0.0000000E+00
  0.0000000E+00  2.0000000E-05  0.0000000E+00
  1.0000000E-05  2.0000000E-05  0.0000000E+00
  2.0000000E-05  2.0000000E-05  0.0000000E+00
  3.0000000E-05  2.0000000E-05  0.0000000E+00
  4.0000000E-05  2.0000000E-05  0.0000000E+00
  5.0000000E-05  2.0000000E-05  0.0000000E+00
  6.0000000E-05  2.0000000E-05  0.0000000E+00
  7.0000000E-05  2.0000000E-05  0.0000000E+00
  8.0000000E-05  2.0000000E-05  0.0000000E+00
  9.0000000E-05  2.0000000E-05  0.0000000E+00
  1.0000000E-04  2.0000000E-05  0.0000000E+00
  1.1000000E-04  2.0000000E-05  0.0000000E+00
  1.2000000E-04  2.0000000E-05  0.0000000E+00
  1.3000000E-04  2.0000000E-05  0.0000000E+00
  1.4000000E-04  2.0000000E-05  0.0000000E+00
  1.5000000E-04  2.0000000E-05  0.0000000E+00
  1.6000000E-04  2.0000000E-05  0.0000000E+00
  1.7000000E-04  2.0000000E-05  0.0000000E+00
  1.8000000E-04  2.0000000E-05  0.0000000E+00
  1.9000000E-04  2.0000000E-05  0.0000000E+00
  2.0000000E-04  2.0000000E-05  0.0000000E+00
  2.1000000E-04  2.0000000E-05  0.0000000E+00
  2.2000000E-04  2.0000000E-05  0.0000000E+00
  2.3000000E-04  2.0000000E-05  0.0000000E+00
  2.4000000E-04  2.0000000E-05  0.0000000E+00
  2.5000000E-04  2.0000000E-05  0.0000000E+00
  2.6000000E-04  2.0000000E-05  0.0000000E+00
  2.7000000E-04  2.0000000E-05  0.0000000E+00
  2.8000000E-04  2.0000000E-05  0.0000000E+00
  2.9000000E-04  2.0000000E-05  0.0000000E+00
  3.0000000E-04  2.0000000E-05  0.0000000E+00
  3.1000000E-04  2.0000000E-05  0.0000000E+00
  3.2000000E-04  2.0000000E-05  0.0000000E+00
  3.3000000E-04  2.0000000E-05  0.0000000E+00
  3.4000000E-04  2.0000000E-05  0.0000000E+00
  3.5000000E-04  2.0000000E-05  0.0000000E+00
  3.6000000E-04  2.0000000E-05  0.0000000E+00
  3.7000000E-04  2.0000000E-05  0.0000000E+00
  3.8000000E-04  2.0000000E-05  0.0000000E+00
  3.9000000E-04  2.0000000E-05  0.0000000E+00
  4.0000000E-04  2.0000000E-05  0.0000000E+00
  4.1000000E-04  2.0000000E-05  0.0000000E+00
  4.2000000E-04  2.0000000E-05  0.0000000E+00
  4.3000000E-04  2.0000000E-05  0.0000000E+00
  4.4000000E-04  2.0000000E-05  0.0000000E+00
  4.5000000E-04  2.0000000E-05  0.0000000E+00
  4.6000000E-04  2.0000000E-05  0.0000000E+00
  4.7000000E-04  2.0000000E-05  0.0000000E+00
  4.8000000E-04  2.0000000E-05  0.0000000E+00
  4.9000000E-04  2.0000000E-05  0.0000000E+00
  5.0000000E-04  2.0000000E-05  0.0000000E+00
  0.0000000E+00  3.0000000E-05  0.0000000E+00
  1.0000000E-05  3.0000000E-05  0.0000000E+00
  2.0000000E-05  3.0000000E-05  0.0000000E+00
  3.0000000E-05  3.0000000E-05  0.0000000E+00
  4.0000000E-05  3.0000000E-05  0.0000000E+00
  5.0000000E-05  3.0000000E-05  0.0000000E+00
  6.0000000E-05  3.0000000E-05  0.0000000E+00
  7.0000000E-05  3.0000000E-05  0.0000000E+00
  8.0000000E-05  3.0000000E-05  0.0000000E+00
  9.0000000E-05  3.0000000E-05  0.0000000E+00
  1.0000000E-04  3.0000000E-05  0.0000000E+00
  1.1000000E-04  3.0000000E-05  0.0000000E+00
  1.2000000E-04  3.0000000E-05  0.0000000E+00
  1.3000000E-04  3.0000000E-05  0.0000000E+00
  1.4000000E-04  3.0000000E-05  0.0000000E+00
  1.5000000E-04  3.0000000E-05  0.0000000E+00
  1.6000000E-04  3.0000000E-05  0.0000000E+00
  1.7000000E-04  3.0000000E-05  0.0000000E+00
  1.8000000E-04  3.0000000E-05  0.0000000E+00
  1.9000000E-04  3.0000000E-05  0.0000000E+00
  2.0000000E-04  3.0000000E-05  0.0000000E+00
  2.1000000E-04  3.0000000E-05  0.0000000E+00
  2.2000000E-04  3.0000000E-05  0.0000000E+00
  2.3000000E-04  3.0000000E-05  0.0000000E+00
  2.4000000E-04  3.0000000E-05  0.0000000E+00
  2.5000000E-04  3.0000000E-05  0.0000000E+00
  2.6000000E-04  3.0000000E-05  0.0000000E+00
  2.7000000E-04  3.0000000E-05  0.0000000E+00
  2.8000000E-04  3.0000000E-05  0.0000000E+00
  2.9000000E-04  3.0000000E-05  0.0000000E+00
  3.0000000E-04  3.0000000E-05  0.0000000E+00
  3.1000000E-04  3.0000000E-05  0.0000000E+00
  3.2000000E-04  3.0000000E-05  0.0000000E+00
  3.3000000E-04  3.0000000E-05  0.0000000E+00
  3.4000000E-04  3.0000000E-05  0.0000000E+00
  3.5000000E-04  3.0000000E-05  0.0000000E+00
  3.6000000E-04  3.0000000E-05  0.0000000E+00
  3.7000000E-04  3.0000000E-05  0.0000000E+00
  3.8000000E-04  3.0000000E-05  0.0000000E+00
  3.9000000E-04  3.0000000E-05  0.0000000E+00
  4.0000000E-04  3.0000000E-05  0.0000000E+00
  4.1000000E-04  3.0000000E-05  0.0000000E+00
  4.2000000E-04  3.0000000E-05  0.0000000E+00
  4.3000000E-04  3.0000000E-05  0.0000000E+00
  4.4000000E-04  3.0000000E-05  0.0000000E+00
  4.5000000E-04  3.0000000E-05  0.0000000E+00
  4.6000000E-04  3.0000000E-05  0.0000000E+00
  4.7000000E-04  3.0000000E-05  0.0000000E+00
  4.8000000E-04  3.0000000E-05  0.0000000E+00
  4.9000000E-04  3.0000000E-05  0.0000000E+00
  5.0000000E-04  3.0000000E-05  0.0000000E+00
  0.0000000E+00  4.0000000E-05  0.0000000E+00
  1.0000000E-05  4.0000000E-05  0.0000000E+00
  2.0000000E-05  4.0000000E-05  0.0000000E+00
  3.0000000E-05  4.0000000E-05  0.0000000E+00
  4.0000000E-05  4.0000000E-05  0.0000000E+00
  5.0000000E-05  4.0000000E-05  0.0000000E+00
  6.0000000E-05  4.0000000E-05  0.0000000E+00
[...]
      <PointData Scalars="Temperature" Vectors="Displacement">
        <DataArray type="Float64" Name="Temperature" format="ascii">
  3.0000000E+02
  3.0000000E+02
  3.0000000E+02
  3.0000000E+02
  3.0000000E+02
  3.0000000E+02
  3.0000000E+02
  3.0000000E+02
  3.0000000E+02
  3.0000000E+02
  3.0000000E+02
  3.0000000E+02
  3.0000000E+02
  3.0000000E+02
  3.0000000E+02
  3.0000000E+02
  3.0000000E+02
  3.0000000E+02
  3.0000000E+02
  3.0000000E+02
  3.0000000E+02
  3.0000000E+02
  3.0000000E+02
  3.0000000E+02
  3.0000000E+02
  3.0000000E+02
  3.0000000E+02
  3.0000000E+02
  3.0000000E+02
  3.0000000E+02
  3.0000000E+02
  3.0000000E+02
  3.0000000E+02
  3.0000000E+02
  3.0000000E+02
  3.0000000E+02
  3.0000000E+02
  3.0000000E+02
  3.0000000E+02
  3.0000000E+02
  3.0000000E+02
  3.0000000E+02
  3.0000000E+02
  3.0000000E+02
  3.0000000E+02
  3.0000000E+02
  3.0000000E+02
  3.0000000E+02
  3.0000000E+02
  3.0000000E+02
  3.0000000E+02
  3.0000000E+02
  3.0000000E+02
  3.0000000E+02
  3.0000000E+02
  3.0000000E+02
  3.0000000E+02
  3.0000000E+02
  3.0000000E+02
  3.0000000E+02
  3.0000000E+02
  3.0000000E+02
  3.0000000E+02
  3.0000000E+02
  3.0000000E+02
  3.0000000E+02
  3.0000000E+02
  3.0000000E+02
  3.0000000E+02
  3.0000000E+02
  3.0000000E+02
  3.0000000E+02
  3.0000000E+02
  3.0000000E+02
  3.0000000E+02
  3.0000000E+02
  3.0000000E+02
  3.0000000E+02
  3.0000000E+02
  3.0000000E+02
  3.0000000E+02
  3.0000000E+02
  3.0000000E+02
  3.0000000E+02
  3.0000000E+02
  3.0000000E+02
  3.0000000E+02
  3.0000000E+02
  3.0000000E+02
  3.0000000E+02
  3.0000000E+02
  3.0000000E+02
  3.0000000E+02
  3.0000000E+02
  3.0000000E+02
  3.0000000E+02
  3.0000000E+02
  3.0000000E+02
  3.0000000E+02
  3.0000000E+02
  3.0000000E+02
  3.0000000E+02
  3.0000000E+02
  3.0000000E+02
  3.0000000E+02
  3.0000000E+02
  3.0000000E+02
  3.0000000E+02
  3.0000000E+02
  3.0000000E+02
  3.0000000E+02
  3.0000000E+02
  3.0000000E+02
  3.0000000E+02
  3.0000000E+02
  3.0000000E+02
  3.0000000E+02
  3.0000000E+02
  3.0000000E+02
  3.0000000E+02
  3.0000000E+02
  3.0000000E+02
  3.0000000E+02
  3.0000000E+02
  3.0000000E+02
  3.0000000E+02
  3.0000000E+02
  3.0000000E+02
  3.0000000E+02
  3.0000000E+02
  3.0000000E+02
  3.0000000E+02
  3.0000000E+02
  3.0000000E+02
  3.0000000E+02
  3.0000000E+02
  3.0000000E+02
  3.0000000E+02
  3.0000000E+02
  3.0000000E+02
  3.0000000E+02
  3.0000000E+02
  3.0000000E+02
  3.0000000E+02
  3.0000000E+02
  3.0000000E+02
  3.0000000E+02
  3.0000000E+02
  3.0000000E+02
  3.0000000E+02
  3.0000000E+02
  3.0000000E+02
  3.0000000E+02
  3.0000000E+02
  3.0000000E+02
  3.0000000E+02
  3.0000000E+02
  3.0000000E+02
  3.0000000E+02
  3.0000000E+02
  3.0000000E+02
  3.0000000E+02
  3.0000000E+02
  3.0000000E+02
  3.0000000E+02
  3.0000000E+02
  3.0000000E+02
  3.0000000E+02
  3.0000000E+02
  3.0000000E+02
  3.0000000E+02
  3.0000000E+02
  3.0000000E+02
  3.0000000E+02
  3.0000000E+02
  3.0000000E+02
  3.0000000E+02
  3.0000000E+02
  3.0000000E+02
  3.0000000E+02
  3.0000000E+02
  3.0000000E+02
  3.0000000E+02
  3.0000000E+02
  3.0000000E+02
  3.0000000E+02
  3.0000000E+02
  3.0000000E+02
  3.0000000E+02
  3.0000000E+02
  3.0000000E+02
  3.0000000E+02
  3.0000000E+02
  3.0000000E+02
  3.0000000E+02
  3.0000000E+02
  3.0000000E+02
  3.0000000E+02
  3.0000000E+02
  3.0000000E+02
  3.0000000E+02
  3.0000000E+02
  3.0000000E+02
  3.0000000E+02
  3.0000000E+02
  3.0000000E+02
  3.0000000E+02
  3.0000000E+02
  3.0000000E+02
  3.0000000E+02
  3.0000000E+02
  3.0000000E+02
  3.0000000E+02
  3.0000000E+02
  3.0000000E+02
  3.0000000E+02
  3.0000000E+02
  3.0000000E+02
  3.0000000E+02
  3.0000000E+02
  3.0000000E+02
  3.0000000E+02
  3.0000000E+02
  3.0000000E+02
  3.0000000E+02
  3.0000000E+02
  3.0000000E+02
  3.0000000E+02
  3.0000000E+02
  3.0000000E+02
  3.0000000E+02
  3.0000000E+02
  3.0000000E+02
  3.0000000E+02
  3.0000000E+02
  3.0000000E+02
  3.0000000E+02
  3.0000000E+02
  3.0000000E+02
  3.0000000E+02
  3.0000000E+02
  3.0000000E+02
  3.0000000E+02
  3.0000000E+02
  3.0000000E+02
  3.0000000E+02
  3.0000000E+02
  3.0000000E+02
  3.0000000E+02
  3.0000000E+02
  3.0000000E+02
  3.0000000E+02
  3.0000000E+02
  3.0000000E+02
  3.0000000E+02
  3.0000000E+02
  3.0000000E+02
  3.0000000E+02
  3.0000000E+02
  3.0000000E+02
  3.0000000E+02
  3.0000000E+02
  3.0000000E+02
  3.0000000E+02
  3.0000000E+02
  3.0000000E+02
  3.0000000E+02
  3.0000000E+02
  3.0000000E+02
  3.0000000E+02
  3.0000000E+02
  3.0000000E+02
  3.0000000E+02
  3.0000000E+02
  3.0000000E+02
  3.0000000E+02
  3.0000000E+02
  3.0000000E+02
  3.0000000E+02
  3.0000000E+02
  3.0000000E+02
  3.0000000E+02
  3.0000000E+02
  3.0000000E+02
  3.0000000E+02
  3.0000000E+02
  3.0000000E+02
  3.0000000E+02
  3.0000000E+02
  3.0000000E+02
  3.0000000E+02
  3.0000000E+02
  3.0000000E+02
  3.0000000E+02
  3.0000000E+02
  3.0000000E+02
  3.0000000E+02
  3.0000000E+02
  3.0000000E+02
  3.0000000E+02
  3.0000000E+02
  3.0000000E+02
  3.0000000E+02
  3.0000000E+02
  3.0000000E+02
  3.0000000E+02
  3.0000000E+02
  3.0000000E+02
  3.0000000E+02
  3.0000000E+02
  3.0000000E+02
  3.0000000E+02
  3.0000000E+02
  3.0000000E+02
  3.0000000E+02
  3.0000000E+02
  3.0000000E+02
  3.0000000E+02
  3.0000000E+02
  3.0000000E+02
  3.0000000E+02
  3.0000000E+02
  3.0000000E+02
  3.0000000E+02
  3.0000000E+02
  3.0000000E+02
  3.0000000E+02
  3.0000000E+02
  3.0000000E+02
  3.0000000E+02
  3.0000000E+02
  3.0000000E+02
  3.0000000E+02
  3.0000000E+02
  3.0000000E+02
  3.0000000E+02
  3.0000000E+02
  3.0000000E+02
  3.0000000E+02
  3.0000000E+02
  3.0000000E+02
  3.0000000E+02
  3.0000000E+02
  3.0000000E+02
  3.0000000E+02
  3.0000000E+02
  3.0000000E+02
  3.0000000E+02
  3.0000000E+02
  3.0000000E+02
  3.0000000E+02
  3.0000000E+02
  3.0000000E+02
  3.0000000E+02
  3.0000000E+02
  3.0000000E+02
  3.0000000E+02
  3.0000000E+02
  3.0000000E+02
  3.0000000E+02
  3.0000000E+02
  3.0000000E+02
  3.0000000E+02
  3.0000000E+02
  3.0000000E+02
  3.0000000E+02
  3.0000000E+02
  3.0000000E+02
  3.0000000E+02
  3.0000000E+02
  3.0000000E+02
  3.0000000E+02
  3.0000000E+02
  3.0000000E+02
  3.0000000E+02
  3.0000000E+02
  3.0000000E+02
  3.0000000E+02
  3.0000000E+02
  3.0000000E+02
  3.0000000E+02
  3.0000000E+02
  3.0000000E+02
  3.0000000E+02
  3.0000000E+02
  3.0000000E+02
  3.0000000E+02
  3.0000000E+02
  3.0000000E+02
  3.0000000E+02
  3.0000000E+02
  3.0000000E+02
  3.0000000E+02
  3.0000000E+02
  3.0000000E+02
  3.0000000E+02
  3.0000000E+02
  3.0000000E+02
  3.0000000E+02
  3.0000000E+02
  3.0000000E+02
  3.0000000E+02
  3.0000000E+02
  3.0000000E+02
  3.0000000E+02
  3.0000000E+02
  3.0000000E+02
  3.0000000E+02
  3.0000000E+02
  3.0000000E+02
  3.0000000E+02
  3.0000000E+02
  3.0000000E+02
  3.0000000E+02
  3.0000000E+02
  3.0000000E+02
  3.0000000E+02
  3.0000000E+02
  3.0000000E+02
  3.0000000E+02
  3.0000000E+02
  3.0000000E+02
  3.0000000E+02
  3.0000000E+02
  3.0000000E+02
  3.0000000E+02
  3.0000000E+02
  3.0000000E+02
  3.0000000E+02
  3.0000000E+02
  3.0000000E+02
  3.0000000E+02
  3.0000000E+02
  3.0000000E+02
  3.0000000E+02
  3.0000000E+02
  3.0000000E+02
  3.0000000E+02
  3.0000000E+02
  3.0000000E+02
  3.0000000E+02
  3.0000000E+02
  3.0000000E+02
  3.0000000E+02
  3.0000000E+02
  3.0000000E+02
  3.0000000E+02
  3.0000000E+02
  3.0000000E+02
  3.0000000E+02
  3.0000000E+02
  3.0000000E+02
  3.0000000E+02
  3.0000000E+02
  3.0000000E+02
  3.0000000E+02
  3.0000000E+02
  3.0000000E+02
  3.0000000E+02
  3.0000000E+02
  3.0000000E+02
  3.0000000E+02
  3.0000000E+02
  3.0000000E+02
  3.0000000E+02
  3.0000000E+02
  3.0000000E+02
  3.0000000E+02
  3.0000000E+02
  3.0000000E+02
  3.0000000E+02
  3.0000000E+02
  3.0000000E+02
  3.0000000E+02
  3.0000000E+02
  3.0000000E+02
  3.0000000E+02
  3.0000000E+02
  3.0000000E+02
  3.0000000E+02
  3.0000000E+02
  3.0000000E+02
  3.0000000E+02
  3.0000000E+02
  3.0000000E+02
  3.0000000E+02
  3.0000000E+02
  3.0000000E+02
  3.0000000E+02
  3.0000000E+02
  3.0000000E+02
  3.0000000E+02
  3.0000000E+02
  3.0000000E+02
  3.0000000E+02
  3.0000000E+02
  3.0000000E+02
  3.0000000E+02
  3.0000000E+02
  3.0000000E+02
  3.0000000E+02
  3.0000000E+02
  3.0000000E+02
  3.0000000E+02
  3.0000000E+02
  3.0000000E+02
  3.0000000E+02
  3.0000000E+02
  3.0000000E+02
  3.0000000E+02
  3.0000000E+02
  3.0000000E+02
  3.0000000E+02
  3.0000000E+02
  3.0000000E+02
  3.0000000E+02
  3.0000000E+02
  3.0000000E+02
  3.0000000E+02
  3.0000000E+02
  3.0000000E+02
  3.0000000E+02
  3.0000000E+02
  3.0000000E+02
  3.0000000E+02
  3.0000000E+02
  3.0000000E+02
  3.0000000E+02
  3.0000000E+02
  3.0000000E+02
  3.0000000E+02
  3.0000000E+02
  3.0000000E+02
  3.0000000E+02
  3.0000000E+02
  3.0000000E+02
  3.0000000E+02
  3.0000000E+02
  3.0000000E+02
  3.0000000E+02
  3.0000000E+02
  3.0000000E+02
  3.0000000E+02
  3.0000000E+02
  3.0000000E+02
  3.0000000E+02
  3.0000000E+02
  3.0000000E+02
  3.0000000E+02
  3.0000000E+02
  3.0000000E+02
  3.0000000E+02
  3.0000000E+02
  3.0000000E+02
  3.0000000E+02
  3.0000000E+02
  3.0000000E+02
  3.0000000E+02
  3.0000000E+02
  3.0000000E+02
  3.0000000E+02
  3.0000000E+02
  3.0000000E+02
  3.0000000E+02
  3.0000000E+02
  3.0000000E+02
  3.0000000E+02
  3.0000000E+02
  3.0000000E+02
  3.0000000E+02
  3.0000000E+02
  3.0000000E+02
  3.0000000E+02
  3.0000000E+02
  3.0000000E+02
  3.0000000E+02
  3.0000000E+02
  3.0000000E+02
  3.0000000E+02
  3.0000000E+02
  3.0000000E+02
  3.0000000E+02
  3.0000000E+02
  3.0000000E+02
  3.0000000E+02
  3.0000000E+02
  3.0000000E+02
  3.0000000E+02
  3.0000000E+02
  3.0000000E+02
  3.0000000E+02
  3.0000000E+02
  3.0000000E+02
  3.0000000E+02
  3.0000000E+02
  3.0000000E+02
  3.0000000E+02
  3.0000000E+02
  3.0000000E+02
  3.0000000E+02
  3.0000000E+02
  3.0000000E+02
  3.0000000E+02
  3.0000000E+02
  3.0000000E+02
  3.0000000E+02
  3.0000000E+02
  3.0000000E+02
  3.0000000E+02
  3.0000000E+02
  3.0000000E+02
  3.0000000E+02
  3.0000000E+02
  3.0000000E+02
  3.0000000E+02
  3.0000000E+02
  3.0000000E+02
  3.0000000E+02
  3.0000000E+02
  3.0000000E+02
  3.0000000E+02
  3.0000000E+02
  3.0000000E+02
  3.0000000E+02
  3.0000000E+02
  3.0000000E+02
  3.0000000E+02
  3.0000000E+02
  3.0000000E+02
  3.0000000E+02
  3.0000000E+02
  3.0000000E+02
  3.0000000E+02
  3.0000000E+02
  3.0000000E+02
  3.0000000E+02
  3.0000000E+02
  3.0000000E+02
  3.0000000E+02
  3.0000000E+02
  3.0000000E+02
  3.0000000E+02
  3.0000000E+02
  3.0000000E+02
  3.0000000E+02
  3.0000000E+02
  3.0000000E+02
  3.0000000E+02
  3.0000000E+02
  3.0000000E+02
  3.0000000E+02
  3.0000000E+02
  3.0000000E+02
  3.0000000E+02
  3.0000000E+02
  3.0000000E+02
  3.0000000E+02
  3.0000000E+02
  3.0000000E+02
  3.0000000E+02
  3.0000000E+02
  3.0000000E+02
  3.0000000E+02
  3.0000000E+02
  3.0000000E+02
  3.0000000E+02
  3.0000000E+02
  3.0000000E+02
  3.0000000E+02
  3.0000000E+02
  3.0000000E+02
  3.0000000E+02
  3.0000000E+02
  3.0000000E+02
  3.0000000E+02
  3.0000000E+02
  3.0000000E+02
  3.0000000E+02
  3.0000000E+02
  3.0000000E+02
  3.0000000E+02
  3.0000000E+02
  3.0000000E+02
  3.0000000E+02
  3.0000000E+02
  3.0000000E+02
  3.0000000E+02
  3.0000000E+02
  3.0000000E+02
  3.0000000E+02
  3.0000000E+02
  3.0000000E+02
  3.0000000E+02
  3.0000000E+02
  3.0000000E+02
  3.0000000E+02
  3.0000000E+02
  3.0000000E+02
  3.0000000E+02
  3.0000000E+02
  3.0000000E+02
  3.0000000E+02
  3.0000000E+02
  3.0000000E+02
  3.0000000E+02
  3.0000000E+02
  3.0000000E+02
  3.0000000E+02
  3.0000000E+02
  3.0000000E+02
  3.0000000E+02
  3.0000000E+02
  3.0000000E+02
  3.0000000E+02
  3.0000000E+02
  3.0000000E+02
  3.0000000E+02
  3.0000000E+02
  3.0000000E+02
  3.0000000E+02
  3.0000000E+02
  3.0000000E+02
  3.0000000E+02
  3.0000000E+02
  3.0000000E+02
  3.0000000E+02
  3.0000000E+02
  3.0000000E+02
  3.0000000E+02
  3.0000000E+02
  3.0000000E+02
  3.0000000E+02
  3.0000000E+02
  3.0000000E+02
  3.0000000E+02
  3.0000000E+02
  3.0000000E+02
  3.0000000E+02
  3.0000000E+02
  3.0000000E+02
  3.0000000E+02
  3.0000000E+02
  3.0000000E+02
  3.0000000E+02
  3.0000000E+02
  3.0000000E+02
  3.0000000E+02
  3.0000000E+02
  3.0000000E+02
  3.0000000E+02
  3.0000000E+02
  3.0000000E+02
  3.0000000E+02
  3.0000000E+02
  3.0000000E+02
  3.0000000E+02
  3.0000000E+02
  3.0000000E+02
  3.0000000E+02
  3.0000000E+02
  3.0000000E+02
  3.0000000E+02
  3.0000000E+02
  3.0000000E+02
  3.0000000E+02
  3.0000000E+02
  3.0000000E+02
  3.0000000E+02
  3.0000000E+02
  3.0000000E+02
  3.0000000E+02
  3.0000000E+02
  3.0000000E+02
  3.0000000E+02
  3.0000000E+02
  3.0000000E+02
  3.0000000E+02
  3.0000000E+02
  3.0000000E+02
  3.0000000E+02
  3.0000000E+02
  3.0000000E+02
  3.0000000E+02
  3.0000000E+02
  3.0000000E+02
  3.0000000E+02
  3.0000000E+02
  3.0000000E+02
  3.0000000E+02
  3.0000000E+02
  3.0000000E+02
  3.0000000E+02
  3.0000000E+02
  3.0000000E+02
  3.0000000E+02
  3.0000000E+02
  3.0000000E+02
  3.0000000E+02
  3.0000000E+02
  3.0000000E+02
  3.0000000E+02
  3.0000000E+02
  3.0000000E+02
  3.0000000E+02
  3.0000000E+02
  3.0000000E+02
  3.0000000E+02
  3.0000000E+02
  3.0000000E+02
  3.0000000E+02
  3.0000000E+02
  3.0000000E+02
  3.0000000E+02
  3.0000000E+02
  3.0000000E+02
  3.0000000E+02
  3.0000000E+02
  3.0000000E+02
  3.0000000E+02
  3.0000000E+02
  3.0000000E+02
  3.0000000E+02
  3.0000000E+02
  3.0000000E+02
  3.0000000E+02
  3.0000000E+02
  3.0000000E+02
  3.0000000E+02
  3.0000000E+02
  3.0000000E+02
  3.0000000E+02
  3.0000000E+02
  3.0000000E+02
  3.0000000E+02
  3.0000000E+02
  3.0000000E+02
  3.0000000E+02
  3.0000000E+02
  3.0000000E+02
  3.0000000E+02
  3.0000000E+02
  3.0000000E+02
  3.0000000E+02
  3.0000000E+02
  3.0000000E+02
  3.0000000E+02
  3.0000000E+02
  3.0000000E+02
  3.0000000E+02
  3.0000000E+02
  3.0000000E+02
  3.0000000E+02
  3.0000000E+02
  3.0000000E+02
  3.0000000E+02
  3.0000000E+02
  3.0000000E+02
  3.0000000E+02
  3.0000000E+02
  3.0000000E+02
  3.0000000E+02
  3.0000000E+02
  3.0000000E+02
  3.0000000E+02
  3.0000000E+02
  3.0000000E+02
  3.0000000E+02
  3.0000000E+02
  3.0000000E+02
  3.0000000E+02
  3.0000000E+02
  3.0000000E+02
  3.0000000E+02
  3.0000000E+02
  3.0000000E+02
  3.0000000E+02
  3.0000000E+02
  3.0000000E+02
  3.0000000E+02
  3.0000000E+02
  3.0000000E+02
  3.0000000E+02
  3.0000000E+02
  3.0000000E+02
  3.0000000E+02
  3.0000000E+02
  3.0000000E+02
  3.0000000E+02
  3.0000000E+02
  3.0000000E+02
  3.0000000E+02
  3.0000000E+02
  3.0000000E+02
  3.0000000E+02
  3.0000000E+02
  3.0000000E+02
  3.0000000E+02
  3.0000000E+02
  3.0000000E+02
  3.0000000E+02
  3.0000000E+02
  3.0000000E+02
  3.0000000E+02
  3.0000000E+02
  3.0000000E+02
  3.0000000E+02
  3.0000000E+02
  3.0000000E+02
  3.0000000E+02
  3.0000000E+02
  3.0000000E+02
  3.0000000E+02
  3.0000000E+02
  3.0000000E+02
  3.0000000E+02
  3.0000000E+02
  3.0000000E+02
  3.0000000E+02
  3.0000000E+02
  3.0000000E+02
  3.0000000E+02
  3.0000000E+02
  3.0000000E+02
  3.0000000E+02
  3.0000000E+02
  3.0000000E+02
  3.0000000E+02
  3.0000000E+02
  3.0000000E+02
  3.0000000E+02
  3.0000000E+02
  3.0000000E+02
  3.0000000E+02
  3.0000000E+02
  3.0000000E+02
  3.0000000E+02
  3.0000000E+02
  3.0000000E+02
  3.0000000E+02
  3.0000000E+02
  3.0000000E+02
  3.0000000E+02
  3.0000000E+02
  3.0000000E+02
  3.0000000E+02
  3.0000000E+02
  3.0000000E+02
  3.0000000E+02
  3.0000000E+02
  3.0000000E+02
  3.0000000E+02
  3.0000000E+02
  3.0000000E+02
  3.0000000E+02
  3.0000000E+02
  3.0000000E+02
  3.0000000E+02
  3.0000000E+02
  3.0000000E+02
  3.0000000E+02
  3.0000000E+02
  3.0000000E+02
  3.0000000E+02
  3.0000000E+02
  3.0000000E+02
  3.0000000E+02
  3.0000000E+02
  3.0000000E+02
  3.0000000E+02
  3.0000000E+02
  3.0000000E+02
  3.0000000E+02
  3.0000000E+02
  3.0000000E+02
  3.0000000E+02
  3.0000000E+02
  3.0000000E+02
  3.0000000E+02
  3.0000000E+02
  3.0000000E+02
  3.0000000E+02
  3.0000000E+02
  3.0000000E+02
  3.0000000E+02
  3.0000000E+02
  3.0000000E+02
  3.0000000E+02
  3.0000000E+02
  3.0000000E+02
  3.0000000E+02
  3.0000000E+02
  3.0000000E+02
  3.0000000E+02
  3.0000000E+02
  3.0000000E+02
  3.0000000E+02
  3.0000000E+02
  3.0000000E+02
  3.0000000E+02
  3.0000000E+02
  3.0000000E+02
  3.0000000E+02
  3.0000000E+02
  3.0000000E+02
  3.0000000E+02
  3.0000000E+02
  3.0000000E+02
  3.0000000E+02
  3.0000000E+02
  3.0000000E+02
  3.0000000E+02
  3.0000000E+02
  3.0000000E+02
  3.0000000E+02
  3.0000000E+02
  3.0000000E+02
  3.0000000E+02
  3.0000000E+02
  3.0000000E+02
  3.0000000E+02
  3.0000000E+02
  3.0000000E+02
  3.0000000E+02
  3.0000000E+02
  3.0000000E+02
  3.0000000E+02
  3.0000000E+02
  3.0000000E+02
  3.0000000E+02
  3.0000000E+02
  3.0000000E+02
  3.0000000E+02
  3.0000000E+02
  3.0000000E+02
  3.0000000E+02
  3.0000000E+02
  3.0000000E+02
  3.0000000E+02
  3.0000000E+02
  3.0000000E+02
  3.0000000E+02
  3.0000000E+02
  3.0000000E+02
  3.0000000E+02
  3.0000000E+02
  3.0000000E+02
  3.0000000E+02
  3.0000000E+02
  3.0000000E+02
  3.0000000E+02
  3.0000000E+02
  3.0000000E+02
  3.0000000E+02
  3.0000000E+02
  3.0000000E+02
  3.0000000E+02
  3.0000000E+02
  3.0000000E+02
  3.0000000E+02
  3.0000000E+02
  3.0000000E+02
  3.0000000E+02
  3.0000000E+02
  3.0000000E+02
  3.0000000E+02
  3.0000000E+02
  3.0000000E+02
  3.0000000E+02
  3.0000000E+02
  3.0000000E+02
  3.0000000E+02
  2.9999998E+02
  2.9999995E+02
  2.9999989E+02
  2.9999984E+02
  2.9999979E+02
  2.9999966E+02
  2.9999960E+02
  2.9999979E+02
  2.9999962E+02
  2.9999963E+02
  2.9999940E+02
  2.9999891E+02
  2.9999917E+02
  2.9999967E+02
  2.9999905E+02
  2.9999880E+02
  2.9999925E+02
  2.9999974E+02
  2.9999980E+02
  2.9999970E+02
  2.9999974E+02
  2.9999973E+02
  2.9999976E+02
  2.9999984E+02
  2.9999990E+02
  2.9999994E+02
  2.9999997E+02
  2.9999999E+02
  3.0000000E+02
  3.0000000E+02
  3.0000000E+02
  3.0000000E+02
  3.0000000E+02
  3.0000000E+02
  3.0000000E+02
  3.0000000E+02
  3.0000000E+02
  3.0000000E+02
  3.0000000E+02
  3.0000000E+02
  3.0000000E+02
  3.0000000E+02
  3.0000000E+02
  3.0000000E+02
  3.0000000E+02
  3.0000000E+02
  3.0000000E+02
  3.0000000E+02
  3.0000000E+02
  3.0000000E+02
  3.0000000E+02
  2.9999995E+02
  2.9999989E+02
  2.9999979E+02
  2.9999968E+02
  2.9999951E+02
  2.9999929E+02
  2.9999940E+02
  2.9999972E+02
  2.9999951E+02
  2.9999924E+02
  2.9999865E+02
  3.0000019E+02
  2.9999977E+02
  2.9999909E+02
  3.0000113E+02
  3.0000142E+02
  3.0000029E+02
  2.9999904E+02
  2.9999983E+02
  2.9999995E+02
  2.9999958E+02
  2.9999944E+02
  2.9999949E+02
  2.9999965E+02
  2.9999980E+02
  2.9999988E+02
  2.9999994E+02
  2.9999998E+02
  2.9999999E+02
  3.0000000E+02
  3.0000000E+02
  3.0000000E+02
  3.0000000E+02
  3.0000000E+02
  3.0000000E+02
  3.0000000E+02
  3.0000000E+02
  3.0000000E+02
  3.0000000E+02
  3.0000000E+02
  3.0000000E+02
  3.0000000E+02
  3.0000000E+02
  3.0000000E+02
  3.0000000E+02
  3.0000000E+02
  3.0000000E+02
  3.0000000E+02
  3.0000000E+02
  3.0000000E+02
  3.0000000E+02
  2.9999991E+02
  2.9999980E+02
  2.9999963E+02
  2.9999936E+02
  2.9999904E+02
  2.9999912E+02
  2.9999946E+02
  2.9999898E+02
  2.9999875E+02
  2.9999897E+02
  3.0000150E+02
  2.9999783E+02
  3.0000213E+02
  3.0000466E+02
  2.9999921E+02
  2.9999750E+02
  2.9999758E+02
  3.0000110E+02
  2.9999873E+02
  2.9999916E+02
  2.9999950E+02
  2.9999930E+02
  2.9999925E+02
  2.9999937E+02
  2.9999960E+02
  2.9999978E+02
  2.9999988E+02
  2.9999995E+02
  2.9999998E+02
  2.9999999E+02
  3.0000000E+02
  3.0000000E+02
  3.0000000E+02
  3.0000000E+02
  3.0000000E+02
  3.0000000E+02
  3.0000000E+02
  3.0000000E+02
  3.0000000E+02
  3.0000000E+02
  3.0000000E+02
  3.0000000E+02
  3.0000000E+02
  3.0000000E+02
  3.0000000E+02
  3.0000000E+02
  3.0000000E+02
  3.0000000E+02
  3.0000000E+02
  3.0000000E+02
  3.0000000E+02
  2.9999987E+02
  2.9999972E+02
  2.9999940E+02
  2.9999905E+02
  2.9999904E+02
  2.9999929E+02
  2.9999852E+02
  2.9999721E+02
  2.9999663E+02
  2.9999640E+02
  2.9998852E+02
  3.0000115E+02
  2.9999309E+02
  2.9998748E+02
  2.9999759E+02
  3.0000521E+02
  3.0000734E+02