<?xml version="1.0"?>
<VTKFile type="StructuredGrid" version="0.1" byte_order="LittleEndian">
  <StructuredGrid WholeExtent="0 50 0 20 0 5 0 50 0 20 0 5">
    <Piece Extent="0 50 0 20 0 5 0 50 0 20 0 5">
      <Points>
        <DataArray type="Float64" NumberOfComponents="3" format="ascii">
  0.0000000E+00  0.0000000E+00  0.0000000E+00
  1.0000000E-05  0.0000000E+00  0.0000000E+00
  2.0000000E-05  0.0000000E+00  0.0000000E+00
  3.0000000E-05  0.0000000E+00  0.0000000E+00
  4.0000000E-05  0.0000000E+00  0.0000000E+00
  5.0000000E-05  0.0000000E+00  0.0000000E+00
  6.0000000E-05  0.0000000E+00  0.0000000E+00
  7.0000000E-05  0.0000000E+00  0.0000000E+00
  8.0000000E-05  0.0000000E+00  0.0000000E+00
  9.0000000E-05  0.0000000E+00  0.0000000E+00
  1.0000000E-04  0.0000000E+00  0.0000000E+00
  1.1000000E-04  0.0000000E+00  0.0000000E+00
  1.2000000E-04  0.0000000E+00  0.0000000E+00
  1.3000000E-04  0.0000000E+00  0.0000000E+00
  1.4000000E-04  0.0000000E+00  0.0000000E+00
  1.5000000E-04  0.0000000E+00  0.0000000E+00
  1.6000000E-04  0.0000000E+00  0.0000000E+00
  1.7000000E-04  0.0000000E+00  0.0000000E+00
  1.8000000E-04  0.0000000E+00  0.0000000E+00
  1.9000000E-04  0.0000000E+00  0.0000000E+00
  2.0000000E-04  0.0000000E+00  0.0000000E+00
  2.1000000E-04  0.0000000E+00  0.0000000E+00
  2.2000000E-04  0.0000000E+00  0.0000000E+00
  2.3000000E-04  0.0000000E+00  0.0000000E+00
  2.4000000E-04  0.0000000E+00  0.0000000E+00
  2.5000000E-04  0.0000000E+00  0.0000000E+00
  2.6000000E-04  0.0000000E+00  0.0000000E+00
  2.7000000E-04  0.0000000E+00  0.0000000E+00
  2.8000000E-04  0.0000000E+00  0.0000000E+00
  2.9000000E-04  0.0000000E+00  0.0000000E+00
  3.0000000E-04  0.0000000E+00  0.0000000E+00
  3.1000000E-04  0.0000000E+00  0.0000000E+00
  3.2000000E-04  0.0000000E+00  0.0000000E+00
  3.3000000E-04  0.0000000E+00  0.0000000E+00
  3.4000000E-04  0.0000000E+00  0.0000000E+00
  3.5000000E-04  0.0000000E+00  0.0000000E+00
  3.6000000E-04  0.0000000E+00  0.0000000E+00
  3.7000000E-04  0.0000000E+00  0.0000000E+00
  3.8000000E-04  0.0000000E+00  0.0000000E+00
  3.9000000E-04  0.0000000E+00  0.0000000E+00
  4.0000000E-04  0.0000000E+00  0.0000000E+00
  4.1000000E-04  0.0000000E+00  0.0000000E+00
  4.2000000E-04  0.0000000E+00  0.0000000E+00
  4.3000000E-04  0.0000000E+00  0.0000000E+00
  4.4000000E-04  0.0000000E+00  0.0000000E+00
  4.5000000E-04  0.0000000E+00  0.0000000E+00
  4.6000000E-04  0.0000000E+00  0.0000000E+00
  4.7000000E-04  0.0000000E+00  0.0000000E+00
  4.8000000E-04  0.0000000E+00  0.0000000E+00
  4.9000000E-04  0.0000000E+00  0.0000000E+00
  5.0000000E-04  0.0000000E+00  0.0000000E+00
  0.0000000E+00  1.0000000E-05  0.0000000E+00
  1.0000000E-05  1.0000000E-05  0.0000000E+00
  2.0000000E-05  1.0000000E-05  0.0000000E+00
  3.0000000E-05  1.0000000E-05  0.0000000E+00
  4.0000000E-05  1.0000000E-05  0.0000000E+00
  5.0000000E-05  1.0000000E-05  0.0000000E+00
  6.0000000E-05  1.0000000E-05  0.0000000E+00
  7.0000000E-05  1.0000000E-05  0.0000000E+00
  8.0000000E-05  1.0000000E-05  0.0000000E+00
  9.0000000E-05  1.0000000E-05  0.0000000E+00
  1.0000000E-04  1.0000000E-05  0.0000000E+00
  1.1000000E-04  1.0000000E-05  0.0000000E+00
  1.2000000E-04  1.0000000E-05  0.0000000E+00
  1.3000000E-04  1.0000000E-05  0.0000000E+00
  1.4000000E-04  1.0000000E-05  0.0000000E+00
  1.5000000E-04  1.0000000E-05  0.0000000E+00
  1.6000000E-04  1.0000000E-05  0.0000000E+00
  1.7000000E-04  1.0000000E-05  0.0000000E+00
  1.8000000E-04  1.0000000E-05  0.0000000E+00
  1.9000000E-04  1.0000000E-05  0.0000000E+00
  2.0000000E-04  1.0000000E-05  0.0000000E+00
  2.1000000E-04  1.0000000E-05  0.0000000E+00
  2.2000000E-04  1.0000000E-05  0.0000000E+00
  2.3000000E-04  1.0000000E-05  0.0000000E+00
  2.4000000E-04  1.0000000E-05  0.0000000E+00
  2.5000000E-04  1.0000000E-05  0.0000000E+00
  2.6000000E-04  1.0000000E-05  0.0000000E+00
  2.7000000E-04  1.0000000E-05  0.0000000E+00
  2.8000000E-04  1.0000000E-05  0.0000000E+00
  2.9000000E-04  1.0000000E-05  0.0000000E+00
  3.0000000E-04  1.0000000E-05  0.0000000E+00
  3.1000000E-04  1.0000000E-05  0.0000000E+00
  3.2000000E-04  1.0000000E-05  0.0000000E+00
  3.3000000E-04  1.0000000E-05  0.0000000E+00
  3.4000000E-04  1.0000000E-05  0.0000000E+00
  3.5000000E-04  1.0000000E-05  0.0000000E+00
  3.6000000E-04  1.0000000E-05  0.0000000E+00
  3.7000000E-04  1.0000000E-05  0.0000000E+00
  3.8000000E-04  1.0000000E-05  0.0000000E+00
  3.9000000E-04  1.0000000E-05  0.0000000E+00
  4.0000000E-04  1.0000000E-05  0.0000000E+00
  4.1000000E-04  1.0000000E-05  0.0000000E+00
  4.2000000E-04  1.0000000E-05  0.0000000E+00
  4.3000000E-04  1.0000000E-05  0.0000000E+00
  4.4000000E-04  1.0000000E-05  0.0000000E+00
  4.5000000E-04  1.0000000E-05  0.0000000E+00
  4.6000000E-04  1.0000000E-05  0.0000000E+00
  4.7000000E-04  1.0000000E-05  0.0000000E+00
  4.8000000E-04  1.0000000E-05  0.0000000E+00
  4.9000000E-04  1.0000000E-05  0.0000000E+00
  5.0000000E-04  1.0000000E-05  0.0000000E+00
  0.0000000E+00  2.0000000E-05  0.0000000E+00
  1.0000000E-05  2.0000000E-05  0.0000000E+00
  2.0000000E-05  2.0000000E-05  0.0000000E+00
  3.0000000E-05  2.0000000E-05  0.0000000E+00
  4.0000000E-05  2.0000000E-05  0.0000000E+00
  5.0000000E-05  2.0000000E-05  0.0000000E+00
  6.0000000E-05  2.0000000E-05  0.0000000E+00
  7.0000000E-05  2.0000000E-05  0.0000000E+00
  8.0000000E-05  2.0000000E-05  0.0000000E+00
  9.0000000E-05  2.0000000E-05  0.0000000E+00
  1.0000000E-04  2.0000000E-05  0.0000000E+00
  1.1000000E-04  2.0000000E-05  0.0000000E+00
  1.2000000E-04  2.0000000E-05  0.0000000E+00
  1.3000000E-04  2.0000000E-05  0.0000000E+00
  1.4000000E-04  2.0000000E-05  0.0000000E+00
  1.5000000E-04  2.0000000E-05  0.0000000E+00
  1.6000000E-04  2.0000000E-05  0.0000000E+00
  1.7000000E-04  2.0000000E-05  0.0000000E+00
  1.8000000E-04  2.0000000E-05  0.0000000E+00
  1.9000000E-04  2.0000000E-05  0.0000000E+00
  2.0000000E-04  2.0000000E-05  0.0000000E+00
  2.1000000E-04  2.0000000E-05  0.0000000E+00
  2.2000000E-04  2.0000000E-05  0.0000000E+00
  2.3000000E-04  2.0000000E-05  0.0000000E+00
  2.4000000E-04  2.0000000E-05  0.0000000E+00
  2.5000000E-04  2.0000000E-05  0.0000000E+00
  2.6000000E-04  2.0000000E-05  0.0000000E+00
  2.7000000E-04  2.0000000E-05  0.0000000E+00
  2.8000000E-04  2.0000000E-05  0.0000000E+00
  2.9000000E-04  2.0000000E-05  0.0000000E+00
  3.0000000E-04  2.0000000E-05  0.0000000E+00
  3.1000000E-04  2.0000000E-05  0.0000000E+00
  3.2000000E-04  2.0000000E-05  0.0000000E+00
  3.3000000E-04  2.0000000E-05  0.0000000E+00
  3.4000000E-04  2.0000000E-05  0.0000000E+00
  3.5000000E-04  2.0000000E-05  0.0000000E+00
  3.6000000E-04  2.0000000E-05  0.0000000E+00
  3.7000000E-04  2.0000000E-05  0.0000000E+00
  3.8000000E-04  2.0000000E-05  0.0000000E+00
  3.9000000E-04  2.0000000E-05  0.0000000E+00
  4.0000000E-04  2.0000000E-05  0.0000000E+00
  4.1000000E-04  2.0000000E-05  0.0000000E+00
  4.2000000E-04  2.0000000E-05  0.0000000E+00
  4.3000000E-04  2.0000000E-05  0.0000000E+00
  4.4000000E-04  2.0000000E-05  0.0000000E+00
  4.5000000E-04  2.0000000E-05  0.0000000E+00
  4.6000000E-04  2.0000000E-05  0.0000000E+00
  4.7000000E-04  2.0000000E-05  0.0000000E+00
  4.8000000E-04  2.0000000E-05  0.0000000E+00
  4.9000000E-04  2.0000000E-05  0.0000000E+00
  5.0000000E-04  2.0000000E-05  0.0000000E+00
  0.0000000E+00  3.0000000E-05  0.0000000E+00
  1.0000000E-05  3.0000000E-05  0.0000000E+00
  2.0000000E-05  3.0000000E-05  0.0000000E+00
  3.0000000E-05  3.0000000E-05  0.0000000E+00
  4.0000000E-05  3.0000000E-05  0.0000000E+00
  5.0000000E-05  3.0000000E-05  0.0000000E+00
  6.0000000E-05  3.0000000E-05  0.0000000E+00
  7.0000000E-05  3.0000000E-05  0.0000000E+00
  8.0000000E-05  3.0000000E-05  0.0000000E+00
  9.0000000E-05  3.0000000E-05  0.0000000E+00
  1.0000000E-04  3.0000000E-05  0.0000000E+00
  1.1000000E-04  3.0000000E-05  0.0000000E+00
  1.2000000E-04  3.0000000E-05  0.0000000E+00
  1.3000000E-04  3.0000000E-05  0.0000000E+00
  1.4000000E-04  3.0000000E-05  0.0000000E+00
  1.5000000E-04  3.0000000E-05  0.0000000E+00
  1.6000000E-04  3.0000000E-05  0.0000000E+00
  1.7000000E-04  3.0000000E-05  0.0000000E+00
  1.8000000E-04  3.0000000E-05  0.0000000E+00
  1.9000000E-04  3.0000000E-05  0.0000000E+00
  2.0000000E-04  3.0000000E-05  0.0000000E+00
  2.1000000E-04  3.0000000E-05  0.0000000E+00
  2.2000000E-04  3.0000000E-05  0.0000000E+00
  2.3000000E-04  3.0000000E-05  0.0000000E+00
  2.4000000E-04  3.0000000E-05  0.0000000E+00
  2.5000000E-04  3.0000000E-05  0.0000000E+00
  2.6000000E-04  3.0000000E-05  0.0000000E+00
  2.7000000E-04  3.0000000E-05  0.0000000E+00
  2.8000000E-04  3.0000000E-05  0.0000000E+00
  2.9000000E-04  3.0000000E-05  0.0000000E+00
  3.0000000E-04  3.0000000E-05  0.0000000E+00
  3.1000000E-04  3.0000000E-05  0.0000000E+00
  3.2000000E-04  3.0000000E-05  0.0000000E+00
  3.3000000E-04  3.0000000E-05  0.0000000E+00
  3.4000000E-04  3.0000000E-05  0.0000000E+00
  3.5000000E-04  3.0000000E-05  0.0000000E+00
  3.6000000E-04  3.0000000E-05  0.0000000E+00
  3.7000000E-04  3.0000000E-05  0.0000000E+00
  3.8000000E-04  3.0000000E-05  0.0000000E+00
  3.9000000E-04  3.0000000E-05  0.0000000E+00
  4.0000000E-04  3.0000000E-05  0.0000000E+00
  4.1000000E-04  3.0000000E-05  0.0000000E+00
  4.2000000E-04  3.0000000E-05  0.0000000E+00
  4.3000000E-04  3.0000000E-05  0.0000000E+00
  4.4000000E-04  3.0000000E-05  0.0000000E+00
  4.5000000E-04  3.0000000E-05  0.0000000E+00
  4.6000000E-04  3.0000000E-05  0.0000000E+00
  4.7000000E-04  3.0000000E-05  0.0000000E+00
  4.8000000E-04  3.0000000E-05  0.0000000E+00
  4.9000000E-04  3.0000000E-05  0.0000000E+00
  5.0000000E-04  3.0000000E-05  0.0000000E+00
  0.0000000E+00  4.0000000E-05  0.0000000E+00
  1.0000000E-05  4.0000000E-05  0.0000000E+00
  2.0000000E-05  4.0000000E-05  0.0000000E+00
  3.0000000E-05  4.0000000E-05  0.0000000E+00
  4.0000000E-05  4.0000000E-05  0.0000000E+00
  5.0000000E-05  4.0000000E-05  0.0000000E+00
  6.0000000E-05  4.0000000E-05  0.0000000E+00
[...]
      <PointData Scalars="Temperature" Vectors="Displacement">
        <DataArray type="Float64" Name="Temperature" format="ascii">
  3.0000000E+02
  3.0000000E+02
  3.0000000E+02
  3.0000000E+02
  3.0000000E+02
  3.0000000E+02
  3.0000000E+02
  3.0000000E+02
  3.0000000E+02
  3.0000000E+02
  3.0000000E+02
  3.0000000E+02
  3.0000000E+02
  3.0000000E+02
  3.0000000E+02
  3.0000000E+02
  3.0000000E+02
  3.0000000E+02
  3.0000000E+02
  3.0000000E+02
  3.0000000E+02
  3.0000000E+02
  3.0000000E+02
  3.0000000E+02
  3.0000000E+02
  3.0000000E+02
  3.0000000E+02
  3.0000000E+02
  3.0000000E+02
  3.0000000E+02
  3.0000000E+02
  3.0000000E+02
  3.0000000E+02
  3.0000000E+02
  3.0000000E+02
  3.0000000E+02
  3.0000000E+02
  3.0000000E+02
  3.0000000E+02
  3.0000000E+02
  3.0000000E+02
  3.0000000E+02
  3.0000000E+02
  3.0000000E+02
  3.0000000E+02
  3.0000000E+02
  3.0000000E+02
  3.0000000E+02
  3.0000000E+02
  3.0000000E+02
  3.0000000E+02
  3.0000000E+02
  3.0000000E+02
  3.0000000E+02
  3.0000000E+02
  3.0000000E+02
  3.0000000E+02
  3.0000000E+02
  3.0000000E+02
  3.0000000E+02
  3.0000000E+02
  3.0000000E+02
  3.0000000E+02
  3.0000000E+02
  3.0000000E+02
  3.0000000E+02
  3.0000000E+02
  3.0000000E+02
  3.0000000E+02
  3.0000000E+02
  3.0000000E+02
  3.0000000E+02
  3.0000000E+02
  3.0000000E+02
  3.0000000E+02
  3.0000000E+02
  3.0000000E+02
  3.0000000E+02
  3.0000000E+02
  3.0000000E+02
  3.0000000E+02
  3.0000000E+02
  3.0000000E+02
  3.0000000E+02
  3.0000000E+02
  3.0000000E+02
  3.0000000E+02
  3.0000000E+02
  3.0000000E+02
  3.0000000E+02
  3.0000000E+02
  3.0000000E+02
  3.0000000E+02
  3.0000000E+02
  3.0000000E+02
  3.0000000E+02
  3.0000000E+02
  3.0000000E+02
  3.0000000E+02
  3.0000000E+02
  3.0000000E+02
  3.0000000E+02
  3.0000000E+02
  3.0000000E+02
  3.0000000E+02
  3.0000000E+02
  3.0000000E+02
  3.0000000E+02
  3.0000000E+02
  3.0000000E+02
  3.0000000E+02
  3.0000000E+02
  3.0000000E+02
  3.0000000E+02
  3.0000000E+02
  3.0000000E+02
  3.0000000E+02
  3.0000000E+02
  3.0000000E+02
  3.0000000E+02
  3.0000000E+02
  3.0000000E+02
  3.0000000E+02
  3.0000000E+02
  3.0000000E+02
  3.0000000E+02
  3.0000000E+02
  3.0000000E+02
  3.0000000E+02
  3.0000000E+02
  3.0000000E+02
  3.0000000E+02
  3.0000000E+02
  3.0000000E+02
  3.0000000E+02
  3.0000000E+02
  3.0000000E+02
  3.0000000E+02
  3.0000000E+02
  3.0000000E+02
  3.0000000E+02
  3.0000000E+02
  3.0000000E+02
  3.0000000E+02
  3.0000000E+02
  3.0000000E+02
  3.0000000E+02
  3.0000000E+02
  3.0000000E+02
  3.0000000E+02
  3.0000000E+02
  3.0000000E+02
  3.0000000E+02
  3.0000000E+02
  3.0000000E+02
  3.0000000E+02
  3.0000000E+02
  3.0000000E+02
  3.0000000E+02
  3.0000000E+02
  3.0000000E+02
  3.0000000E+02
  3.0000000E+02
  3.0000000E+02
  3.0000000E+02
  3.0000000E+02
  3.0000000E+02
  3.0000000E+02
  3.0000000E+02
  3.0000000E+02
  3.0000000E+02
  3.0000000E+02
  3.0000000E+02
  3.0000000E+02
  3.0000000E+02
  3.0000000E+02
  3.0000000E+02
  3.0000000E+02
  3.0000000E+02
  3.0000000E+02
  3.0000000E+02
  3.0000000E+02
  3.0000000E+02
  3.0000000E+02
  3.0000000E+02
  3.0000000E+02
  3.0000000E+02
  3.0000000E+02
  3.0000000E+02
  3.0000000E+02
  3.0000000E+02
  3.0000000E+02
  3.0000000E+02
  3.0000000E+02
  3.0000000E+02
  3.0000000E+02
  3.0000000E+02
  3.0000000E+02
  3.0000000E+02
  3.0000000E+02
  3.0000000E+02
  3.0000000E+02
  3.0000000E+02
  3.0000000E+02
  3.0000000E+02
  3.0000000E+02
  3.0000000E+02
  3.0000000E+02
  3.0000000E+02
  3.0000000E+02
  3.0000000E+02
  3.0000000E+02
  3.0000000E+02
  3.0000000E+02
  3.0000000E+02
  3.0000000E+02
  3.0000000E+02
  3.0000000E+02
  3.0000000E+02
  3.0000000E+02
  3.0000000E+02
  3.0000000E+02
  3.0000000E+02
  3.0000000E+02
  3.0000000E+02
  3.0000000E+02
  3.0000000E+02
  3.0000000E+02
  3.0000000E+02
  3.0000000E+02
  3.0000000E+02
  3.0000000E+02
  3.0000000E+02
  3.0000000E+02
  3.0000000E+02
  3.0000000E+02
  3.0000000E+02
  3.0000000E+02
  3.0000000E+02
  3.0000000E+02
  3.0000000E+02
  3.0000000E+02
  3.0000000E+02
  3.0000000E+02
  3.0000000E+02
  3.0000000E+02
  3.0000000E+02
  3.0000000E+02
  3.0000000E+02
  3.0000000E+02
  3.0000000E+02
  3.0000000E+02
  3.0000000E+02
  3.0000000E+02
  3.0000000E+02
  3.0000000E+02
  3.0000000E+02
  3.0000000E+02
  3.0000000E+02
  3.0000000E+02
  3.0000000E+02
  3.0000000E+02
  3.0000000E+02
  3.0000000E+02
  3.0000000E+02
  3.0000000E+02
  3.0000000E+02
  3.0000000E+02
  3.0000000E+02
  3.0000000E+02
  3.0000000E+02
  3.0000000E+02
  3.0000000E+02
  3.0000000E+02
  3.0000000E+02
  3.0000000E+02
  3.0000000E+02
  3.0000000E+02
  3.0000000E+02
  3.0000000E+02
  3.0000000E+02
  3.0000000E+02
  3.0000000E+02
  3.0000000E+02
  3.0000000E+02
  3.0000000E+02
  3.0000000E+02
  3.0000000E+02
  3.0000000E+02
  3.0000000E+02
  3.0000000E+02
  3.0000000E+02
  3.0000000E+02
  3.0000000E+02
  3.0000000E+02
  3.0000000E+02
  3.0000000E+02
  3.0000000E+02
  3.0000000E+02
  3.0000000E+02
  3.0000000E+02
  3.0000000E+02
  3.0000000E+02
  3.0000000E+02
  3.0000000E+02
  3.0000000E+02
  3.0000000E+02
  3.0000000E+02
  3.0000000E+02
  3.0000000E+02
  3.0000000E+02
  3.0000000E+02
  3.0000000E+02
  3.0000000E+02
  3.0000000E+02
  3.0000000E+02
  3.0000000E+02
  3.0000000E+02
  3.0000000E+02
  3.0000000E+02
  3.0000000E+02
  3.0000000E+02
  3.0000000E+02
  3.0000000E+02
  3.0000000E+02
  3.0000000E+02
  3.0000000E+02
  3.0000000E+02
  3.0000000E+02
  3.0000000E+02
  3.0000000E+02
  3.0000000E+02
  3.0000000E+02
  3.0000000E+02
  3.0000000E+02
  3.0000000E+02
  3.0000000E+02
  3.0000000E+02
  3.0000000E+02
  3.0000000E+02
  3.0000000E+02
  3.0000000E+02
  3.0000000E+02
  3.0000000E+02
  3.0000000E+02
  3.0000000E+02
  3.0000000E+02
  3.0000000E+02
  3.0000000E+02
  3.0000000E+02
  3.0000000E+02
  3.0000000E+02
  3.0000000E+02
  3.0000000E+02
  3.0000000E+02
  3.0000000E+02
  3.0000000E+02
  3.0000000E+02
  3.0000000E+02
  3.0000000E+02
  3.0000000E+02
  3.0000000E+02
  3.0000000E+02
  3.0000000E+02
  3.0000000E+02
  3.0000000E+02
  3.0000000E+02
  3.0000000E+02
  3.0000000E+02
  3.0000000E+02
  3.0000000E+02
  3.0000000E+02
  3.0000000E+02
  3.0000000E+02
  3.0000000E+02
  3.0000000E+02
  3.0000000E+02
  3.0000000E+02
  3.0000000E+02
  3.0000000E+02
  3.0000000E+02
  3.0000000E+02
  3.0000000E+02
  3.0000000E+02
  3.0000000E+02
  3.0000000E+02
  3.0000000E+02
  3.0000000E+02
  3.0000000E+02
  3.0000000E+02
  3.0000000E+02
  3.0000000E+02
  3.0000000E+02
  3.0000000E+02
  3.0000000E+02
  3.0000000E+02
  3.0000000E+02
  3.0000000E+02
  3.0000000E+02
  3.0000000E+02
  3.0000000E+02
  3.0000000E+02
  3.0000000E+02
  3.0000000E+02
  3.0000000E+02
  3.0000000E+02
  3.0000000E+02
  3.0000000E+02
  3.0000000E+02
  3.0000000E+02
  3.0000000E+02
  3.0000000E+02
  3.0000000E+02
  3.0000000E+02
  3.0000000E+02
  3.0000000E+02
  3.0000000E+02
  3.0000000E+02
  3.0000000E+02
  3.0000000E+02
  3.0000000E+02
  3.0000000E+02
  3.0000000E+02
  3.0000000E+02
  3.0000000E+02
  3.0000000E+02
  3.0000000E+02
  3.0000000E+02
  3.0000000E+02
  3.0000000E+02
  3.0000000E+02
  3.0000000E+02
  3.0000000E+02
  3.0000000E+02
  3.0000000E+02
  3.0000000E+02
  3.0000000E+02
  3.0000000E+02
  3.0000000E+02
  3.0000000E+02
  3.0000000E+02
  3.0000000E+02
  3.0000000E+02
  3.0000000E+02
  3.0000000E+02
  3.0000000E+02
  3.0000000E+02
  3.0000000E+02
  3.0000000E+02
  3.0000000E+02
  3.0000000E+02
  3.0000000E+02
  3.0000000E+02
  3.0000000E+02
  3.0000000E+02
  3.0000000E+02
  3.0000000E+02
  3.0000000E+02
  3.0000000E+02
  3.0000000E+02
  3.0000000E+02
  3.0000000E+02
  3.0000000E+02
  3.0000000E+02
  3.0000000E+02
  3.0000000E+02
  3.0000000E+02
  3.0000000E+02
  3.0000000E+02
  3.0000000E+02
  3.0000000E+02
  3.0000000E+02
  3.0000000E+02
  3.0000000E+02
  3.0000000E+02
  3.0000000E+02
  3.0000000E+02
  3.0000000E+02
  3.0000000E+02
  3.0000000E+02
  3.0000000E+02
  3.0000000E+02
  3.0000000E+02
  3.0000000E+02
  3.0000000E+02
  3.0000000E+02
  3.0000000E+02
  3.0000000E+02
  3.0000000E+02
  3.0000000E+02
  3.0000000E+02
  3.0000000E+02
  3.0000000E+02
  3.0000000E+02
  3.0000000E+02
  3.0000000E+02
  3.0000000E+02
  3.0000000E+02
  3.0000000E+02
  3.0000000E+02
  3.0000000E+02
  3.0000000E+02
  3.0000000E+02
  3.0000000E+02
  3.0000000E+02
  3.0000000E+02
  3.0000000E+02
  3.0000000E+02
  3.0000000E+02
  3.0000000E+02
  3.0000000E+02
  3.0000000E+02
  3.0000000E+02
  3.0000000E+02
  3.0000000E+02
  3.0000000E+02
  3.0000000E+02
  3.0000000E+02
  3.0000000E+02
  3.0000000E+02
  3.0000000E+02
  3.0000000E+02
  3.0000000E+02
  3.0000000E+02
  3.0000000E+02
  3.0000000E+02
  3.0000000E+02
  3.0000000E+02
  3.0000000E+02
  3.0000000E+02
  3.0000000E+02
  3.0000000E+02
  3.0000000E+02
  3.0000000E+02
  3.0000000E+02
  3.0000000E+02
  3.0000000E+02
  3.0000000E+02
  3.0000000E+02
  3.0000000E+02
  3.0000000E+02
  3.0000000E+02
  3.0000000E+02
  3.0000000E+02
  3.0000000E+02
  3.0000000E+02
  3.0000000E+02
  3.0000000E+02
  3.0000000E+02
  3.0000000E+02
  3.0000000E+02
  3.0000000E+02
  3.0000000E+02
  3.0000000E+02
  3.0000000E+02
  3.0000000E+02
  3.0000000E+02
  3.0000000E+02
  3.0000000E+02
  3.0000000E+02
  3.0000000E+02
  3.0000000E+02
  3.0000000E+02
  3.0000000E+02
  3.0000000E+02
  3.0000000E+02
  3.0000000E+02
  3.0000000E+02
  3.0000000E+02
  3.0000000E+02
  3.0000000E+02
  3.0000000E+02
  3.0000000E+02
  3.0000000E+02
  3.0000000E+02
  3.0000000E+02
  3.0000000E+02
  3.0000000E+02
  3.0000000E+02
  3.0000000E+02
  3.0000000E+02
  3.0000000E+02
  3.0000000E+02
  3.0000000E+02
  3.0000000E+02
  3.0000000E+02
  3.0000000E+02
  3.0000000E+02
  3.0000000E+02
  3.0000000E+02
  3.0000000E+02
  3.0000000E+02
  3.0000000E+02
  3.0000000E+02
  3.0000000E+02
  3.0000000E+02
  3.0000000E+02
  3.0000000E+02
  3.0000000E+02
  3.0000000E+02
  3.0000000E+02
  3.0000000E+02
  3.0000000E+02
  3.0000000E+02
  3.0000000E+02
  3.0000000E+02
  3.0000000E+02
  3.0000000E+02
  3.0000000E+02
  3.0000000E+02
  3.0000000E+02
  3.0000000E+02
  3.0000000E+02
  3.0000000E+02
  3.0000000E+02
  3.0000000E+02
  3.0000000E+02
  3.0000000E+02
  3.0000000E+02
  3.0000000E+02
  3.0000000E+02
  3.0000000E+02
  3.0000000E+02
  3.0000000E+02
  3.0000000E+02
  3.0000000E+02
  3.0000000E+02
  3.0000000E+02
  3.0000000E+02
  3.0000000E+02
  3.0000000E+02
  3.0000000E+02
  3.0000000E+02
  3.0000000E+02
  3.0000000E+02
  3.0000000E+02
  3.0000000E+02
  3.0000000E+02
  3.0000000E+02
  3.0000000E+02
  3.0000000E+02
  3.0000000E+02
  3.0000000E+02
  3.0000000E+02
  3.0000000E+02
  3.0000000E+02
  3.0000000E+02
  3.0000000E+02
  3.0000000E+02
  3.0000000E+02
  3.0000000E+02
  3.0000000E+02
  3.0000000E+02
  3.0000000E+02
  3.0000000E+02
  3.0000000E+02
  3.0000000E+02
  3.0000000E+02
  3.0000000E+02
  3.0000000E+02
  3.0000000E+02
  3.0000000E+02
  3.0000000E+02
  3.0000000E+02
  3.0000000E+02
  3.0000000E+02
  3.0000000E+02
  3.0000000E+02
  3.0000000E+02
  3.0000000E+02
  3.0000000E+02
  3.0000000E+02
  3.0000000E+02
  3.0000000E+02
  3.0000000E+02
  3.0000000E+02
  3.0000000E+02
  3.0000000E+02
  3.0000000E+02
  3.0000000E+02
  3.0000000E+02
  3.0000000E+02
  3.0000000E+02
  3.0000000E+02
  3.0000000E+02
  3.0000000E+02
  3.0000000E+02
  3.0000000E+02
  3.0000000E+02
  3.0000000E+02
  3.0000000E+02
  3.0000000E+02
  3.0000000E+02
  3.0000000E+02
  3.0000000E+02
  3.0000000E+02
  3.0000000E+02
  3.0000000E+02
  3.0000000E+02
  3.0000000E+02
  3.0000000E+02
  3.0000000E+02
  3.0000000E+02
  3.0000000E+02
  3.0000000E+02
  3.0000000E+02
  3.0000000E+02
  3.0000000E+02
  3.0000000E+02
  3.0000000E+02
  3.0000000E+02
  3.0000000E+02
  3.0000000E+02
  3.0000000E+02
  3.0000000E+02
  3.0000000E+02
  3.0000000E+02
  3.0000000E+02
  3.0000000E+02
  3.0000000E+02
  3.0000000E+02
  3.0000000E+02
  3.0000000E+02
  3.0000000E+02
  3.0000000E+02
  3.0000000E+02
  3.0000000E+02
  3.0000000E+02
  3.0000000E+02
  3.0000000E+02
  3.0000000E+02
  3.0000000E+02
  3.0000000E+02
  3.0000000E+02
  3.0000000E+02
  3.0000000E+02
  3.0000000E+02
  3.0000000E+02
  3.0000000E+02
  3.0000000E+02
  3.0000000E+02
  3.0000000E+02
  3.0000000E+02
  3.0000000E+02
  3.0000000E+02
  3.0000000E+02
  3.0000000E+02
  3.0000000E+02
  3.0000000E+02
  3.0000000E+02
  3.0000000E+02
  3.0000000E+02
  3.0000000E+02
  3.0000000E+02
  3.0000000E+02
  3.0000000E+02
  3.0000000E+02
  3.0000000E+02
  3.0000000E+02
  3.0000000E+02
  3.0000000E+02
  3.0000000E+02
  3.0000000E+02
  3.0000000E+02
  3.0000000E+02
  3.0000000E+02
  3.0000000E+02
  3.0000000E+02
  3.0000000E+02
  3.0000000E+02
  3.0000000E+02
  3.0000000E+02
  3.0000000E+02
  3.0000000E+02
  3.0000000E+02
  3.0000000E+02
  3.0000000E+02
  3.0000000E+02
  3.0000000E+02
  3.0000000E+02
  3.0000000E+02
  3.0000000E+02
  3.0000000E+02
  3.0000000E+02
  3.0000000E+02
  3.0000000E+02
  3.0000000E+02
  3.0000000E+02
  3.0000000E+02
  3.0000000E+02
  3.0000000E+02
  3.0000000E+02
  3.0000000E+02
  3.0000000E+02
  3.0000000E+02
  3.0000000E+02
  3.0000000E+02
  3.0000000E+02
  3.0000000E+02
  3.0000000E+02
  3.0000000E+02
  3.0000000E+02
  3.0000000E+02
  3.0000000E+02
  3.0000000E+02
  3.0000000E+02
  3.0000000E+02
  3.0000000E+02
  3.0000000E+02
  3.0000000E+02
  3.0000000E+02
  3.0000000E+02
  3.0000000E+02
  3.0000000E+02
  3.0000000E+02
  3.0000000E+02
  3.0000000E+02
  3.0000000E+02
  3.0000000E+02
  3.0000000E+02
  3.0000000E+02
  3.0000000E+02
  3.0000000E+02
  3.0000000E+02
  3.0000000E+02
  3.0000000E+02
  3.0000000E+02
  3.0000000E+02
  3.0000000E+02
  3.0000000E+02
  3.0000000E+02
  3.0000000E+02
  3.0000000E+02
  3.0000000E+02
  3.0000000E+02
  3.0000000E+02
  3.0000000E+02
  3.0000000E+02
  3.0000000E+02
  3.0000000E+02
  3.0000000E+02
  3.0000000E+02
  3.0000000E+02
  3.0000000E+02
  3.0000000E+02
  3.0000000E+02
  3.0000000E+02
  3.0000000E+02
  3.0000000E+02
  3.0000000E+02
  3.0000000E+02
  3.0000000E+02
  3.0000000E+02
  3.0000000E+02
  3.0000000E+02
  3.0000000E+02
  3.0000000E+02
  3.0000000E+02
  3.0000000E+02
  3.0000000E+02
  3.0000000E+02
  3.0000000E+02
  3.0000000E+02
  3.0000000E+02
  3.0000000E+02
  3.0000000E+02
  3.0000000E+02
  3.0000000E+02
  3.0000000E+02
  3.0000000E+02
  3.0000000E+02
  3.0000000E+02
  3.0000000E+02
  3.0000000E+02
  3.0000000E+02
  3.0000000E+02
  3.0000000E+02
  3.0000000E+02
  3.0000000E+02
  3.0000000E+02
  3.0000000E+02
  3.0000000E+02
  3.0000000E+02
  3.0000000E+02
  3.0000000E+02
  3.0000000E+02
  3.0000000E+02
  3.0000000E+02
  3.0000000E+02
  3.0000000E+02
  3.0000000E+02
  3.0000000E+02
  3.0000000E+02
  3.0000000E+02
  3.0000000E+02
  3.0000000E+02
  3.0000000E+02
  3.0000000E+02
  3.0000000E+02
  3.0000000E+02
  3.0000000E+02
  3.0000000E+02
  3.0000000E+02
  3.0000000E+02
  3.0000000E+02
  3.0000000E+02
  3.0000000E+02
  3.0000000E+02
  3.0000000E+02
  3.0000000E+02
  3.0000000E+02
  3.0000000E+02
  3.0000000E+02
  3.0000000E+02
  3.0000000E+02
  3.0000000E+02
  3.0000000E+02
  3.0000000E+02
  3.0000000E+02
  3.0000000E+02
  3.0000000E+02
  3.0000000E+02
  3.0000000E+02
  3.0000000E+02
  3.0000000E+02
  3.0000000E+02
  3.0000000E+02
  3.0000000E+02
  3.0000000E+02
  3.0000000E+02
  3.0000000E+02
  3.0000000E+02
  3.0000000E+02
  3.0000000E+02
  3.0000000E+02
  3.0000000E+02
  3.0000000E+02
  3.0000000E+02
  3.0000000E+02
  3.0000000E+02
  3.0000000E+02
  3.0000000E+02
  3.0000000E+02
  3.0000000E+02
  3.0000000E+02
  3.0000000E+02
  3.0000000E+02
  3.0000000E+02
  3.0000000E+02
  3.0000000E+02
  3.0000000E+02
  3.0000000E+02
  3.0000000E+02
  3.0000000E+02
  3.0000000E+02
  3.0000000E+02
  3.0000000E+02
  3.0000000E+02
  3.0000000E+02
  3.0000000E+02
  3.0000000E+02
  3.0000000E+02
  3.0000000E+02
  3.0000000E+02
  3.0000000E+02
  3.0000000E+02
  3.0000000E+02
  3.0000000E+02
  3.0000000E+02
  3.0000000E+02
  3.0000000E+02
  3.0000000E+02
  3.0000000E+02
  3.0000000E+02
  3.0000000E+02
  3.0000000E+02
  3.0000000E+02
  3.0000000E+02
  3.0000000E+02
  3.0000000E+02
  3.0000000E+02
  3.0000000E+02
  3.0000000E+02
  3.0000000E+02
  3.0000000E+02
  3.0000000E+02
  3.0000000E+02
  3.0000000E+02
  3.0000000E+02
  3.0000000E+02
  3.0000000E+02
  3.0000000E+02
  3.0000000E+02
  3.0000000E+02
  3.0000000E+02
  3.0000000E+02
  3.0000000E+02
  3.0000000E+02
  3.0000000E+02
  3.0000000E+02
  3.0000000E+02
  3.0000000E+02
  3.0000000E+02
  3.0000000E+02
  3.0000000E+02
  3.0000000E+02
  3.0000000E+02
  3.0000000E+02
  3.0000000E+02
  3.0000000E+02
  3.0000000E+02
  3.0000000E+02
  3.0000000E+02
  3.0000000E+02
  3.0000000E+02
  3.0000000E+02
  3.0000000E+02
  3.0000000E+02
  3.0000000E+02
  3.0000000E+02
  3.0000000E+02
  3.0000000E+02
  3.0000000E+02
  3.0000000E+02
  3.0000000E+02
  3.0000000E+02
  3.0000000E+02
  3.0000000E+02
  3.0000000E+02
  3.0000000E+02
  3.0000000E+02
  3.0000000E+02
  3.0000000E+02
  3.0000000E+02
  3.0000000E+02
  3.0000000E+02
  3.0000000E+02
  3.0000000E+02
  3.0000000E+02
  3.0000000E+02
  3.0000000E+02
  3.0000000E+02
  3.0000000E+02
  3.0000000E+02
  3.0000000E+02
  3.0000000E+02
  3.0000000E+02
  3.0000000E+02
  3.0000000E+02
  3.0000000E+02
  3.0000000E+02
  3.0000000E+02
  3.0000000E+02
  3.0000000E+02
  3.0000000E+02
  3.0000000E+02
  3.0000000E+02
  3.0000000E+02
  3.0000000E+02
  3.0000000E+02
  3.0000000E+02
  3.0000000E+02
  3.0000000E+02
  3.0000000E+02
  3.0000000E+02
  3.0000000E+02
  3.0000000E+02
  3.0000000E+02
  3.0000000E+02
  3.0000000E+02
  3.0000000E+02
  3.0056876E+02
  3.0067357E+02
  3.0100675E+02
  3.0162327E+02
  3.0260957E+02
  3.0407427E+02
  3.0613307E+02
  3.0888755E+02
  3.1239934E+02
  3.1666313E+02
  3.2158417E+02
  3.2696598E+02
  3.3251343E+02
  3.3785341E+02
  3.4257163E+02
  3.4626069E+02
  3.4857171E+02
  3.4926114E+02
  3.4822547E+02
  3.4551932E+02
  3.4135484E+02
  3.3608040E+02
  3.3014254E+02
  3.2403137E+02
  3.1821287E+02
  3.1306748E+02
  3.0883986E+02
  3.0561431E+02
  3.0333470E+02
  3.0184450E+02
  3.0094680E+02
  3.0044861E+02
  3.0019503E+02
  3.0007704E+02
  3.0002721E+02
  3.0000807E+02
  3.0000153E+02
  2.9999972E+02
  2.9999945E+02
  2.9999957E+02
  2.9999974E+02
  2.9999987E+02
  2.9999994E+02
  2.9999997E+02
  2.9999999E+02
  3.0000000E+02
  3.0000000E+02
  3.0000000E+02
  3.0000000E+02
  3.0000000E+02
  3.0000000E+02
  3.0061449E+02
  3.0072823E+02
  3.0109005E+02
  3.0176037E+02
  3.0283450E+02
  3.0443289E+02
  3.0668509E+02
  3.0970708E+02
  3.1357332E+02
  3.1828734E+02
  3.2375665E+02
  3.2977814E+02
  3.3603971E+02
  3.4214038E+02
  3.4762785E+02
  3.5204833E+02
  3.5500091E+02
  3.5618789E+02
  3.5545380E+02
  3.5280999E+02
  3.4844186E+02
  3.4269451E+02
  3.3604318E+02
  3.2903766E+02
  3.2223062E+02
  3.1610499E+02
  3.1099052E+02
  3.0703325E+02
  3.0420380E+02
  3.0233672E+02
  3.0120346E+02
  3.0057192E+02
  3.0024871E+02
  3.0009825E+02
  3.0003471E+02
  3.0001033E+02
  3.0000196E+02
  2.9999963E+02
  2.9999928E+02
  2.9999944E+02
  2.9999966E+02
  2.9999982E+02
  2.9999992E+02
  2.9999997E+02
  2.9999999E+02
  3.0000000E+02
  3.0000000E+02
  3.0000000E+02
  3.0000000E+02
  3.0000000E+02
  3.0000000E+02
  3.0074928E+02
  3.0088942E+02
  3.0133582E+02
  3.0216511E+02
  3.0349901E+02
  3.0549321E+02
  3.0831871E+02
  3.1213481E+02
  3.1705519E+02
  3.2311123E+02
  3.3021934E+02
  3.3815979E+02
  3.4657356E+02
  3.5498082E+02
  3.6282004E+02
  3.6950236E+02
  3.7447265E+02
  3.7726857E+02
  3.7757251E+02
  3.7525383E+02
  3.7039714E+02
  3.6331972E+02
  3.5456300E+02
  3.4484800E+02
  3.3500122E+02
  3.2580450E+02
  3.1788519E+02
  3.1160371E+02
  3.0701208E+02
  3.0393147E+02
  3.0203440E+02
  3.0096922E+02
  3.0042268E+02
  3.0016692E+02
  3.0005907E+02
  3.0001788E+02
  3.0000378E+02
  2.9999973E+02
  2.9999902E+02
  2.9999920E+02
  2.9999950E+02
  2.9999973E+02
  2.9999987E+02
  2.9999995E+02
  2.9999998E+02
  2.9999999E+02
  3.0000000E+02
  3.0000000E+02
  3.0000000E+02
  3.0000000E+02
  3.0000000E+02
  3.0096557E+02
  3.0114819E+02
  3.0173081E+02
  3.0281639E+02
  3.0456965E+02
  3.0720400E+02
  3.1095875E+02
  3.1606548E+02
  3.2270469E+02
  3.3095782E+02
  3.4076261E+02
  3.5188113E+02
  3.6388888E+02
  3.7618977E+02
  3.8805622E+02
  3.9868827E+02
  4.0728179E+02