<?xml version="1.0"?>
<VTKFile type="StructuredGrid" version="0.1" byte_order="LittleEndian">
  <StructuredGrid WholeExtent="0 50 0 20 0 5 0 50 0 20 0 5">
    <Piece Extent="0 50 0 20 0 5 0 50 0 20 0 5">
      <Points>
        <DataArray type="Float64" NumberOfComponents="3" format="ascii">
  0.0000000E+00  0.0000000E+00  0.0000000E+00
  1.0000000E-05  0.0000000E+00  0.0000000E+00
  2.0000000E-05  0.0000000E+00  0.0000000E+00
  3.0000000E-05  0.0000000E+00  0.0000000E+00
  4.0000000E-05  0.0000000E+00  0.0000000E+00
  5.0000000E-05  0.0000000E+00  0.0000000E+00
  6.0000000E-05  0.0000000E+00  0.0000000E+00
  7.0000000E-05  0.0000000E+00  0.0000000E+00
  8.0000000E-05  0.0000000E+00  0.0000000E+00
  9.0000000E-05  0.0000000E+00  0.0000000E+00
  1.0000000E-04  0.0000000E+00  0.0000000E+00
  1.1000000E-04  0.0000000E+00  0.0000000E+00
  1.2000000E-04  0.0000000E+00  0.0000000E+00
  1.3000000E-04  0.0000000E+00  0.0000000E+00
  1.4000000E-04  0.0000000E+00  0.0000000E+00
  1.5000000E-04  0.0000000E+00  0.0000000E+00
  1.6000000E-04  0.0000000E+00  0.0000000E+00
  1.7000000E-04  0.0000000E+00  0.0000000E+00
  1.8000000E-04  0.0000000E+00  0.0000000E+00
  1.9000000E-04  0.0000000E+00  0.0000000E+00
  2.0000000E-04  0.0000000E+00  0.0000000E+00
  2.1000000E-04  0.0000000E+00  0.0000000E+00
  2.2000000E-04  0.0000000E+00  0.0000000E+00
  2.3000000E-04  0.0000000E+00  0.0000000E+00
  2.4000000E-04  0.0000000E+00  0.0000000E+00
  2.5000000E-04  0.0000000E+00  0.0000000E+00
  2.6000000E-04  0.0000000E+00  0.0000000E+00
  2.7000000E-04  0.0000000E+00  0.0000000E+00
  2.8000000E-04  0.0000000E+00  0.0000000E+00
  2.9000000E-04  0.0000000E+00  0.0000000E+00
  3.0000000E-04  0.0000000E+00  0.0000000E+00
  3.1000000E-04  0.0000000E+00  0.0000000E+00
  3.2000000E-04  0.0000000E+00  0.0000000E+00
  3.3000000E-04  0.0000000E+00  0.0000000E+00
  3.4000000E-04  0.0000000E+00  0.0000000E+00
  3.5000000E-04  0.0000000E+00  0.0000000E+00
  3.6000000E-04  0.0000000E+00  0.0000000E+00
  3.7000000E-04  0.0000000E+00  0.0000000E+00
  3.8000000E-04  0.0000000E+00  0.0000000E+00
  3.9000000E-04  0.0000000E+00  0.0000000E+00
  4.0000000E-04  0.0000000E+00  0.0000000E+00
  4.1000000E-04  0.0000000E+00  0.0000000E+00
  4.2000000E-04  0.0000000E+00  0.0000000E+00
  4.3000000E-04  0.0000000E+00  0.0000000E+00
  4.4000000E-04  0.0000000E+00  0.0000000E+00
  4.5000000E-04  0.0000000E+00  0.0000000E+00
  4.6000000E-04  0.0000000E+00  0.0000000E+00
  4.7000000E-04  0.0000000E+00  0.0000000E+00
  4.8000000E-04  0.0000000E+00  0.0000000E+00
  4.9000000E-04  0.0000000E+00  0.0000000E+00
  5.0000000E-04  0.0000000E+00  0.0000000E+00
  0.0000000E+00  1.0000000E-05  0.0000000E+00
  1.0000000E-05  1.0000000E-05  0.0000000E+00
  2.0000000E-05  1.0000000E-05  0.0000000E+00
  3.0000000E-05  1.0000000E-05  0.0000000E+00
  4.0000000E-05  1.0000000E-05  0.0000000E+00
  5.0000000E-05  1.0000000E-05  0.0000000E+00
  6.0000000E-05  1.0000000E-05  0.0000000E+00
  7.0000000E-05  1.0000000E-05  0.0000000E+00
  8.0000000E-05  1.0000000E-05  0.0000000E+00
  9.0000000E-05  1.0000000E-05  0.0000000E+00
  1.0000000E-04  1.0000000E-05  0.0000000E+00
  1.1000000E-04  1.0000000E-05  0.0000000E+00
  1.2000000E-04  1.0000000E-05  0.0000000E+00
  1.3000000E-04  1.0000000E-05  0.0000000E+00
  1.4000000E-04  1.0000000E-05  0.0000000E+00
  1.5000000E-04  1.0000000E-05  0.0000000E+00
  1.6000000E-04  1.0000000E-05  0.0000000E+00
  1.7000000E-04  1.0000000E-05  0.0000000E+00
  1.8000000E-04  1.0000000E-05  0.0000000E+00
  1.9000000E-04  1.0000000E-05  0.0000000E+00
  2.0000000E-04  1.0000000E-05  0.0000000E+00
  2.1000000E-04  1.0000000E-05  0.0000000E+00
  2.2000000E-04  1.0000000E-05  0.0000000E+00
  2.3000000E-04  1.0000000E-05  0.0000000E+00
  2.4000000E-04  1.0000000E-05  0.0000000E+00
  2.5000000E-04  1.0000000E-05  0.0000000E+00
  2.6000000E-04  1.0000000E-05  0.0000000E+00
  2.7000000E-04  1.0000000E-05  0.0000000E+00
  2.8000000E-04  1.0000000E-05  0.0000000E+00
  2.9000000E-04  1.0000000E-05  0.0000000E+00
  3.0000000E-04  1.0000000E-05  0.0000000E+00
  3.1000000E-04  1.0000000E-05  0.0000000E+00
  3.2000000E-04  1.0000000E-05  0.0000000E+00
  3.3000000E-04  1.0000000E-05  0.0000000E+00
  3.4000000E-04  1.0000000E-05  0.0000000E+00
  3.5000000E-04  1.0000000E-05  0.0000000E+00
  3.6000000E-04  1.0000000E-05  0.0000000E+00
  3.7000000E-04  1.0000000E-05  0.0000000E+00
  3.8000000E-04  1.0000000E-05  0.0000000E+00
  3.9000000E-04  1.0000000E-05  0.0000000E+00
  4.0000000E-04  1.0000000E-05  0.0000000E+00
  4.1000000E-04  1.0000000E-05  0.0000000E+00
  4.2000000E-04  1.0000000E-05  0.0000000E+00
  4.3000000E-04  1.0000000E-05  0.0000000E+00
  4.4000000E-04  1.0000000E-05  0.0000000E+00
  4.5000000E-04  1.0000000E-05  0.0000000E+00
  4.6000000E-04  1.0000000E-05  0.0000000E+00
  4.7000000E-04  1.0000000E-05  0.0000000E+00
  4.8000000E-04  1.0000000E-05  0.0000000E+00
  4.9000000E-04  1.0000000E-05  0.0000000E+00
  5.0000000E-04  1.0000000E-05  0.0000000E+00
  0.0000000E+00  2.0000000E-05  0.0000000E+00
  1.0000000E-05  2.0000000E-05  0.0000000E+00
  2.0000000E-05  2.0000000E-05  0.0000000E+00
  3.0000000E-05  2.0000000E-05  0.0000000E+00
  4.0000000E-05  2.0000000E-05  0.0000000E+00
  5.0000000E-05  2.0000000E-05  0.0000000E+00
  6.0000000E-05  2.0000000E-05  0.0000000E+00
  7.0000000E-05  2.0000000E-05  0.0000000E+00
  8.0000000E-05  2.0000000E-05  0.0000000E+00
  9.0000000E-05  2.0000000E-05  0.0000000E+00
  1.0000000E-04  2.0000000E-05  0.0000000E+00
  1.1000000E-04  2.0000000E-05  0.0000000E+00
  1.2000000E-04  2.0000000E-05  0.0000000E+00
  1.3000000E-04  2.0000000E-05  0.0000000E+00
  1.4000000E-04  2.0000000E-05  0.0000000E+00
  1.5000000E-04  2.0000000E-05  0.0000000E+00
  1.6000000E-04  2.0000000E-05  0.0000000E+00
  1.7000000E-04  2.0000000E-05  0.0000000E+00
  1.8000000E-04  2.0000000E-05  0.0000000E+00
  1.9000000E-04  2.0000000E-05  0.0000000E+00
  2.0000000E-04  2.0000000E-05  0.0000000E+00
  2.1000000E-04  2.0000000E-05  0.0000000E+00
  2.2000000E-04  2.0000000E-05  0.0000000E+00
  2.3000000E-04  2.0000000E-05  0.0000000E+00
  2.4000000E-04  2.0000000E-05  0.0000000E+00
  2.5000000E-04  2.0000000E-05  0.0000000E+00
  2.6000000E-04  2.0000000E-05  0.0000000E+00
  2.7000000E-04  2.0000000E-05  0.0000000E+00
  2.8000000E-04  2.0000000E-05  0.0000000E+00
  2.9000000E-04  2.0000000E-05  0.0000000E+00
  3.0000000E-04  2.0000000E-05  0.0000000E+00
  3.1000000E-04  2.0000000E-05  0.0000000E+00
  3.2000000E-04  2.0000000E-05  0.0000000E+00
  3.3000000E-04  2.0000000E-05  0.0000000E+00
  3.4000000E-04  2.0000000E-05  0.0000000E+00
  3.5000000E-04  2.0000000E-05  0.0000000E+00
  3.6000000E-04  2.0000000E-05  0.0000000E+00
  3.7000000E-04  2.0000000E-05  0.0000000E+00
  3.8000000E-04  2.0000000E-05  0.0000000E+00
  3.9000000E-04  2.0000000E-05  0.0000000E+00
  4.0000000E-04  2.0000000E-05  0.0000000E+00
  4.1000000E-04  2.0000000E-05  0.0000000E+00
  4.2000000E-04  2.0000000E-05  0.0000000E+00
  4.3000000E-04  2.0000000E-05  0.0000000E+00
  4.4000000E-04  2.0000000E-05  0.0000000E+00
  4.5000000E-04  2.0000000E-05  0.0000000E+00
  4.6000000E-04  2.0000000E-05  0.0000000E+00
  4.7000000E-04  2.0000000E-05  0.0000000E+00
  4.8000000E-04  2.0000000E-05  0.0000000E+00
  4.9000000E-04  2.0000000E-05  0.0000000E+00
  5.0000000E-04  2.0000000E-05  0.0000000E+00
  0.0000000E+00  3.0000000E-05  0.0000000E+00
  1.0000000E-05  3.0000000E-05  0.0000000E+00
  2.0000000E-05  3.0000000E-05  0.0000000E+00
  3.0000000E-05  3.0000000E-05  0.0000000E+00
  4.0000000E-05  3.0000000E-05  0.0000000E+00
  5.0000000E-05  3.0000000E-05  0.0000000E+00
  6.0000000E-05  3.0000000E-05  0.0000000E+00
  7.0000000E-05  3.0000000E-05  0.0000000E+00
  8.0000000E-05  3.0000000E-05  0.0000000E+00
  9.0000000E-05  3.0000000E-05  0.0000000E+00
  1.0000000E-04  3.0000000E-05  0.0000000E+00
  1.1000000E-04  3.0000000E-05  0.0000000E+00
  1.2000000E-04  3.0000000E-05  0.0000000E+00
  1.3000000E-04  3.0000000E-05  0.0000000E+00
  1.4000000E-04  3.0000000E-05  0.0000000E+00
  1.5000000E-04  3.0000000E-05  0.0000000E+00
  1.6000000E-04  3.0000000E-05  0.0000000E+00
  1.7000000E-04  3.0000000E-05  0.0000000E+00
  1.8000000E-04  3.0000000E-05  0.0000000E+00
  1.9000000E-04  3.0000000E-05  0.0000000E+00
  2.0000000E-04  3.0000000E-05  0.0000000E+00
  2.1000000E-04  3.0000000E-05  0.0000000E+00
  2.2000000E-04  3.0000000E-05  0.0000000E+00
  2.3000000E-04  3.0000000E-05  0.0000000E+00
  2.4000000E-04  3.0000000E-05  0.0000000E+00
  2.5000000E-04  3.0000000E-05  0.0000000E+00
  2.6000000E-04  3.0000000E-05  0.0000000E+00
  2.7000000E-04  3.0000000E-05  0.0000000E+00
  2.8000000E-04  3.0000000E-05  0.0000000E+00
  2.9000000E-04  3.0000000E-05  0.0000000E+00
  3.0000000E-04  3.0000000E-05  0.0000000E+00
  3.1000000E-04  3.0000000E-05  0.0000000E+00
  3.2000000E-04  3.0000000E-05  0.0000000E+00
  3.3000000E-04  3.0000000E-05  0.0000000E+00
  3.4000000E-04  3.0000000E-05  0.0000000E+00
  3.5000000E-04  3.0000000E-05  0.0000000E+00
  3.6000000E-04  3.0000000E-05  0.0000000E+00
  3.7000000E-04  3.0000000E-05  0.0000000E+00
  3.8000000E-04  3.0000000E-05  0.0000000E+00
  3.9000000E-04  3.0000000E-05  0.0000000E+00
  4.0000000E-04  3.0000000E-05  0.0000000E+00
  4.1000000E-04  3.0000000E-05  0.0000000E+00
  4.2000000E-04  3.0000000E-05  0.0000000E+00
  4.3000000E-04  3.0000000E-05  0.0000000E+00
  4.4000000E-04  3.0000000E-05  0.0000000E+00
  4.5000000E-04  3.0000000E-05  0.0000000E+00
  4.6000000E-04  3.0000000E-05  0.0000000E+00
  4.7000000E-04  3.0000000E-05  0.0000000E+00
  4.8000000E-04  3.0000000E-05  0.0000000E+00
  4.9000000E-04  3.0000000E-05  0.0000000E+00
  5.0000000E-04  3.0000000E-05  0.0000000E+00
  0.0000000E+00  4.0000000E-05  0.0000000E+00
  1.0000000E-05  4.0000000E-05  0.0000000E+00
  2.0000000E-05  4.0000000E-05  0.0000000E+00
  3.0000000E-05  4.0000000E-05  0.0000000E+00
  4.0000000E-05  4.0000000E-05  0.0000000E+00
  5.0000000E-05  4.0000000E-05  0.0000000E+00
  6.0000000E-05  4.0000000E-05  0.0000000E+00
[...]
      <PointData Scalars="Temperature" Vectors="Displacement">
        <DataArray type="Float64" Name="Temperature" format="ascii">
  3.0000000E+02
  3.0000000E+02
  3.0000000E+02
  3.0000000E+02
  3.0000000E+02
  3.0000000E+02
  3.0000000E+02
  3.0000000E+02
  3.0000000E+02
  3.0000000E+02
  3.0000000E+02
  3.0000000E+02
  3.0000000E+02
  3.0000000E+02
  3.0000000E+02
  3.0000000E+02
  3.0000000E+02
  3.0000000E+02
  3.0000000E+02
  3.0000000E+02
  3.0000000E+02
  3.0000000E+02
  3.0000000E+02
  3.0000000E+02
  3.0000000E+02
  3.0000000E+02
  3.0000000E+02
  3.0000000E+02
  3.0000000E+02
  3.0000000E+02
  3.0000000E+02
  3.0000000E+02
  3.0000000E+02
  3.0000000E+02
  3.0000000E+02
  3.0000000E+02
  3.0000000E+02
  3.0000000E+02
  3.0000000E+02
  3.0000000E+02
  3.0000000E+02
  3.0000000E+02
  3.0000000E+02
  3.0000000E+02
  3.0000000E+02
  3.0000000E+02
  3.0000000E+02
  3.0000000E+02
  3.0000000E+02
  3.0000000E+02
  3.0000000E+02
  3.0000000E+02
  3.0000000E+02
  3.0000000E+02
  3.0000000E+02
  3.0000000E+02
  3.0000000E+02
  3.0000000E+02
  3.0000000E+02
  3.0000000E+02
  3.0000000E+02
  3.0000000E+02
  3.0000000E+02
  3.0000000E+02
  3.0000000E+02
  3.0000000E+02
  3.0000000E+02
  3.0000000E+02
  3.0000000E+02
  3.0000000E+02
  3.0000000E+02
  3.0000000E+02
  3.0000000E+02
  3.0000000E+02
  3.0000000E+02
  3.0000000E+02
  3.0000000E+02
  3.0000000E+02
  3.0000000E+02
  3.0000000E+02
  3.0000000E+02
  3.0000000E+02
  3.0000000E+02
  3.0000000E+02
  3.0000000E+02
  3.0000000E+02
  3.0000000E+02
  3.0000000E+02
  3.0000000E+02
  3.0000000E+02
  3.0000000E+02
  3.0000000E+02
  3.0000000E+02
  3.0000000E+02
  3.0000000E+02
  3.0000000E+02
  3.0000000E+02
  3.0000000E+02
  3.0000000E+02
  3.0000000E+02
  3.0000000E+02
  3.0000000E+02
  3.0000000E+02
  3.0000000E+02
  3.0000000E+02
  3.0000000E+02
  3.0000000E+02
  3.0000000E+02
  3.0000000E+02
  3.0000000E+02
  3.0000000E+02
  3.0000000E+02
  3.0000000E+02
  3.0000000E+02
  3.0000000E+02
  3.0000000E+02
  3.0000000E+02
  3.0000000E+02
  3.0000000E+02
  3.0000000E+02
  3.0000000E+02
  3.0000000E+02
  3.0000000E+02
  3.0000000E+02
  3.0000000E+02
  3.0000000E+02
  3.0000000E+02
  3.0000000E+02
  3.0000000E+02
  3.0000000E+02
  3.0000000E+02
  3.0000000E+02
  3.0000000E+02
  3.0000000E+02
  3.0000000E+02
  3.0000000E+02
  3.0000000E+02
  3.0000000E+02
  3.0000000E+02
  3.0000000E+02
  3.0000000E+02
  3.0000000E+02
  3.0000000E+02
  3.0000000E+02
  3.0000000E+02
  3.0000000E+02
  3.0000000E+02
  3.0000000E+02
  3.0000000E+02
  3.0000000E+02
  3.0000000E+02
  3.0000000E+02
  3.0000000E+02
  3.0000000E+02
  3.0000000E+02
  3.0000000E+02
  3.0000000E+02
  3.0000000E+02
  3.0000000E+02
  3.0000000E+02
  3.0000000E+02
  3.0000000E+02
  3.0000000E+02
  3.0000000E+02
  3.0000000E+02
  3.0000000E+02
  3.0000000E+02
  3.0000000E+02
  3.0000000E+02
  3.0000000E+02
  3.0000000E+02
  3.0000000E+02
  3.0000000E+02
  3.0000000E+02
  3.0000000E+02
  3.0000000E+02
  3.0000000E+02
  3.0000000E+02
  3.0000000E+02
  3.0000000E+02
  3.0000000E+02
  3.0000000E+02
  3.0000000E+02
  3.0000000E+02
  3.0000000E+02
  3.0000000E+02
  3.0000000E+02
  3.0000000E+02
  3.0000000E+02
  3.0000000E+02
  3.0000000E+02
  3.0000000E+02
  3.0000000E+02
  3.0000000E+02
  3.0000000E+02
  3.0000000E+02
  3.0000000E+02
  3.0000000E+02
  3.0000000E+02
  3.0000000E+02
  3.0000000E+02
  3.0000000E+02
  3.0000000E+02
  3.0000000E+02
  3.0000000E+02
  3.0000000E+02
  3.0000000E+02
  3.0000000E+02
  3.0000000E+02
  3.0000000E+02
  3.0000000E+02
  3.0000000E+02
  3.0000000E+02
  3.0000000E+02
  3.0000000E+02
  3.0000000E+02
  3.0000000E+02
  3.0000000E+02
  3.0000000E+02
  3.0000000E+02
  3.0000000E+02
  3.0000000E+02
  3.0000000E+02
  3.0000000E+02
  3.0000000E+02
  3.0000000E+02
  3.0000000E+02
  3.0000000E+02
  3.0000000E+02
  3.0000000E+02
  3.0000000E+02
  3.0000000E+02
  3.0000000E+02
  3.0000000E+02
  3.0000000E+02
  3.0000000E+02
  3.0000000E+02
  3.0000000E+02
  3.0000000E+02
  3.0000000E+02
  3.0000000E+02
  3.0000000E+02
  3.0000000E+02
  3.0000000E+02
  3.0000000E+02
  3.0000000E+02
  3.0000000E+02
  3.0000000E+02
  3.0000000E+02
  3.0000000E+02
  3.0000000E+02
  3.0000000E+02
  3.0000000E+02
  3.0000000E+02
  3.0000000E+02
  3.0000000E+02
  3.0000000E+02
  3.0000000E+02
  3.0000000E+02
  3.0000000E+02
  3.0000000E+02
  3.0000000E+02
  3.0000000E+02
  3.0000000E+02
  3.0000000E+02
  3.0000000E+02
  3.0000000E+02
  3.0000000E+02
  3.0000000E+02
  3.0000000E+02
  3.0000000E+02
  3.0000000E+02
  3.0000000E+02
  3.0000000E+02
  3.0000000E+02
  3.0000000E+02
  3.0000000E+02
  3.0000000E+02
  3.0000000E+02
  3.0000000E+02
  3.0000000E+02
  3.0000000E+02
  3.0000000E+02
  3.0000000E+02
  3.0000000E+02
  3.0000000E+02
  3.0000000E+02
  3.0000000E+02
  3.0000000E+02
  3.0000000E+02
  3.0000000E+02
  3.0000000E+02
  3.0000000E+02
  3.0000000E+02
  3.0000000E+02
  3.0000000E+02
  3.0000000E+02
  3.0000000E+02
  3.0000000E+02
  3.0000000E+02
  3.0000000E+02
  3.0000000E+02
  3.0000000E+02
  3.0000000E+02
  3.0000000E+02
  3.0000000E+02
  3.0000000E+02
  3.0000000E+02
  3.0000000E+02
  3.0000000E+02
  3.0000000E+02
  3.0000000E+02
  3.0000000E+02
  3.0000000E+02
  3.0000000E+02
  3.0000000E+02
  3.0000000E+02
  3.0000000E+02
  3.0000000E+02
  3.0000000E+02
  3.0000000E+02
  3.0000000E+02
  3.0000000E+02
  3.0000000E+02
  3.0000000E+02
  3.0000000E+02
  3.0000000E+02
  3.0000000E+02
  3.0000000E+02
  3.0000000E+02
  3.0000000E+02
  3.0000000E+02
  3.0000000E+02
  3.0000000E+02
  3.0000000E+02
  3.0000000E+02
  3.0000000E+02
  3.0000000E+02
  3.0000000E+02
  3.0000000E+02
  3.0000000E+02
  3.0000000E+02
  3.0000000E+02
  3.0000000E+02
  3.0000000E+02
  3.0000000E+02
  3.0000000E+02
  3.0000000E+02
  3.0000000E+02
  3.0000000E+02
  3.0000000E+02
  3.0000000E+02
  3.0000000E+02
  3.0000000E+02
  3.0000000E+02
  3.0000000E+02
  3.0000000E+02
  3.0000000E+02
  3.0000000E+02
  3.0000000E+02
  3.0000000E+02
  3.0000000E+02
  3.0000000E+02
  3.0000000E+02
  3.0000000E+02
  3.0000000E+02
  3.0000000E+02
  3.0000000E+02
  3.0000000E+02
  3.0000000E+02
  3.0000000E+02
  3.0000000E+02
  3.0000000E+02
  3.0000000E+02
  3.0000000E+02
  3.0000000E+02
  3.0000000E+02
  3.0000000E+02
  3.0000000E+02
  3.0000000E+02
  3.0000000E+02
  3.0000000E+02
  3.0000000E+02
  3.0000000E+02
  3.0000000E+02
  3.0000000E+02
  3.0000000E+02
  3.0000000E+02
  3.0000000E+02
  3.0000000E+02
  3.0000000E+02
  3.0000000E+02
  3.0000000E+02
  3.0000000E+02
  3.0000000E+02
  3.0000000E+02
  3.0000000E+02
  3.0000000E+02
  3.0000000E+02
  3.0000000E+02
  3.0000000E+02
  3.0000000E+02
  3.0000000E+02
  3.0000000E+02
  3.0000000E+02
  3.0000000E+02
  3.0000000E+02
  3.0000000E+02
  3.0000000E+02
  3.0000000E+02
  3.0000000E+02
  3.0000000E+02
  3.0000000E+02
  3.0000000E+02
  3.0000000E+02
  3.0000000E+02
  3.0000000E+02
  3.0000000E+02
  3.0000000E+02
  3.0000000E+02
  3.0000000E+02
  3.0000000E+02
  3.0000000E+02
  3.0000000E+02
  3.0000000E+02
  3.0000000E+02
  3.0000000E+02
  3.0000000E+02
  3.0000000E+02
  3.0000000E+02
  3.0000000E+02
  3.0000000E+02
  3.0000000E+02
  3.0000000E+02
  3.0000000E+02
  3.0000000E+02
  3.0000000E+02
  3.0000000E+02
  3.0000000E+02
  3.0000000E+02
  3.0000000E+02
  3.0000000E+02
  3.0000000E+02
  3.0000000E+02
  3.0000000E+02
  3.0000000E+02
  3.0000000E+02
  3.0000000E+02
  3.0000000E+02
  3.0000000E+02
  3.0000000E+02
  3.0000000E+02
  3.0000000E+02
  3.0000000E+02
  3.0000000E+02
  3.0000000E+02
  3.0000000E+02
  3.0000000E+02
  3.0000000E+02
  3.0000000E+02
  3.0000000E+02
  3.0000000E+02
  3.0000000E+02
  3.0000000E+02
  3.0000000E+02
  3.0000000E+02
  3.0000000E+02
  3.0000000E+02
  3.0000000E+02
  3.0000000E+02
  3.0000000E+02
  3.0000000E+02
  3.0000000E+02
  3.0000000E+02
  3.0000000E+02
  3.0000000E+02
  3.0000000E+02
  3.0000000E+02
  3.0000000E+02
  3.0000000E+02
  3.0000000E+02
  3.0000000E+02
  3.0000000E+02
  3.0000000E+02
  3.0000000E+02
  3.0000000E+02
  3.0000000E+02
  3.0000000E+02
  3.0000000E+02
  3.0000000E+02
  3.0000000E+02
  3.0000000E+02
  3.0000000E+02
  3.0000000E+02
  3.0000000E+02
  3.0000000E+02
  3.0000000E+02
  3.0000000E+02
  3.0000000E+02
  3.0000000E+02
  3.0000000E+02
  3.0000000E+02
  3.0000000E+02
  3.0000000E+02
  3.0000000E+02
  3.0000000E+02
  3.0000000E+02
  3.0000000E+02
  3.0000000E+02
  3.0000000E+02
  3.0000000E+02
  3.0000000E+02
  3.0000000E+02
  3.0000000E+02
  3.0000000E+02
  3.0000000E+02
  3.0000000E+02
  3.0000000E+02
  3.0000000E+02
  3.0000000E+02
  3.0000000E+02
  3.0000000E+02
  3.0000000E+02
  3.0000000E+02
  3.0000000E+02
  3.0000000E+02
  3.0000000E+02
  3.0000000E+02
  3.0000000E+02
  3.0000000E+02
  3.0000000E+02
  3.0000000E+02
  3.0000000E+02
  3.0000000E+02
  3.0000000E+02
  3.0000000E+02
  3.0000000E+02
  3.0000000E+02
  3.0000000E+02
  3.0000000E+02
  3.0000000E+02
  3.0000000E+02
  3.0000000E+02
  3.0000000E+02
  3.0000000E+02
  3.0000000E+02
  3.0000000E+02
  3.0000000E+02
  3.0000000E+02
  3.0000000E+02
  3.0000000E+02
  3.0000000E+02
  3.0000000E+02
  3.0000000E+02
  3.0000000E+02
  3.0000000E+02
  3.0000000E+02
  3.0000000E+02
  3.0000000E+02
  3.0000000E+02
  3.0000000E+02
  3.0000000E+02
  3.0000000E+02
  3.0000000E+02
  3.0000000E+02
  3.0000000E+02
  3.0000000E+02
  3.0000000E+02
  3.0000000E+02
  3.0000000E+02
  3.0000000E+02
  3.0000000E+02
  3.0000000E+02
  3.0000000E+02
  3.0000000E+02
  3.0000000E+02
  3.0000000E+02
  3.0000000E+02
  3.0000000E+02
  3.0000000E+02
  3.0000000E+02
  3.0000000E+02
  3.0000000E+02
  3.0000000E+02
  3.0000000E+02
  3.0000000E+02
  3.0000000E+02
  3.0000000E+02
  3.0000000E+02
  3.0000000E+02
  3.0000000E+02
  3.0000000E+02
  3.0000000E+02
  3.0000000E+02
  3.0000000E+02
  3.0000000E+02
  3.0000000E+02
  3.0000000E+02
  3.0000000E+02
  3.0000000E+02
  3.0000000E+02
  3.0000000E+02
  3.0000000E+02
  3.0000000E+02
  3.0000000E+02
  3.0000000E+02
  3.0000000E+02
  3.0000000E+02
  3.0000000E+02
  3.0000000E+02
  3.0000000E+02
  3.0000000E+02
  3.0000000E+02
  3.0000000E+02
  3.0000000E+02
  3.0000000E+02
  3.0000000E+02
  3.0000000E+02
  3.0000000E+02
  3.0000000E+02
  3.0000000E+02
  3.0000000E+02
  3.0000000E+02
  3.0000000E+02
  3.0000000E+02
  3.0000000E+02
  3.0000000E+02
  3.0000000E+02
  3.0000000E+02
  3.0000000E+02
  3.0000000E+02
  3.0000000E+02
  3.0000000E+02
  3.0000000E+02
  3.0000000E+02
  3.0000000E+02
  3.0000000E+02
  3.0000000E+02
  3.0000000E+02
  3.0000000E+02
  3.0000000E+02
  3.0000000E+02
  3.0000000E+02
  3.0000000E+02
  3.0000000E+02
  3.0000000E+02
  3.0000000E+02
  3.0000000E+02
  3.0000000E+02
  3.0000000E+02
  3.0000000E+02
  3.0000000E+02
  3.0000000E+02
  3.0000000E+02
  3.0000000E+02
  3.0000000E+02
  3.0000000E+02
  3.0000000E+02
  3.0000000E+02
  3.0000000E+02
  3.0000000E+02
  3.0000000E+02
  3.0000000E+02
  3.0000000E+02
  3.0000000E+02
  3.0000000E+02
  3.0000000E+02
  3.0000000E+02
  3.0000000E+02
  3.0000000E+02
  3.0000000E+02
  3.0000000E+02
  3.0000000E+02
  3.0000000E+02
  3.0000000E+02
  3.0000000E+02
  3.0000000E+02
  3.0000000E+02
  3.0000000E+02
  3.0000000E+02
  3.0000000E+02
  3.0000000E+02
  3.0000000E+02
  3.0000000E+02
  3.0000000E+02
  3.0000000E+02
  3.0000000E+02
  3.0000000E+02
  3.0000000E+02
  3.0000000E+02
  3.0000000E+02
  3.0000000E+02
  3.0000000E+02
  3.0000000E+02
  3.0000000E+02
  3.0000000E+02
  3.0000000E+02
  3.0000000E+02
  3.0000000E+02
  3.0000000E+02
  3.0000000E+02
  3.0000000E+02
  3.0000000E+02
  3.0000000E+02
  3.0000000E+02
  3.0000000E+02
  3.0000000E+02
  3.0000000E+02
  3.0000000E+02
  3.0000000E+02
  3.0000000E+02
  3.0000000E+02
  3.0000000E+02
  3.0000000E+02
  3.0000000E+02
  3.0000000E+02
  3.0000000E+02
  3.0000000E+02
  3.0000000E+02
  3.0000000E+02
  3.0000000E+02
  3.0000000E+02
  3.0000000E+02
  3.0000000E+02
  3.0000000E+02
  3.0000000E+02
  3.0000000E+02
  3.0000000E+02
  3.0000000E+02
  3.0000000E+02
  3.0000000E+02
  3.0000000E+02
  3.0000000E+02
  3.0000000E+02
  3.0000000E+02
  3.0000000E+02
  3.0000000E+02
  3.0000000E+02
  3.0000000E+02
  3.0000000E+02
  3.0000000E+02
  3.0000000E+02
  3.0000000E+02
  3.0000000E+02
  3.0000000E+02
  3.0000000E+02
  3.0000000E+02
  3.0000000E+02
  3.0000000E+02
  3.0000000E+02
  3.0000000E+02
  3.0000000E+02
  3.0000000E+02
  3.0000000E+02
  3.0000000E+02
  3.0000000E+02
  3.0000000E+02
  3.0000000E+02
  3.0000000E+02
  3.0000000E+02
  3.0000000E+02
  3.0000000E+02
  3.0000000E+02
  3.0000000E+02
  3.0000000E+02
  3.0000000E+02
  3.0000000E+02
  3.0000000E+02
  3.0000000E+02
  3.0000000E+02
  3.0000000E+02
  3.0000000E+02
  3.0000000E+02
  3.0000000E+02
  3.0000000E+02
  3.0000000E+02
  3.0000000E+02
  3.0000000E+02
  3.0000000E+02
  3.0000000E+02
  3.0000000E+02
  3.0000000E+02
  3.0000000E+02
  3.0000000E+02
  3.0000000E+02
  3.0000000E+02
  3.0000000E+02
  3.0000000E+02
  3.0000000E+02
  3.0000000E+02
  3.0000000E+02
  3.0000000E+02
  3.0000000E+02
  3.0000000E+02
  3.0000000E+02
  3.0000000E+02
  3.0000000E+02
  3.0000000E+02
  3.0000000E+02
  3.0000000E+02
  3.0000000E+02
  3.0000000E+02
  3.0000000E+02
  3.0000000E+02
  3.0000000E+02
  3.0000000E+02
  3.0000000E+02
  3.0000000E+02
  3.0000000E+02
  3.0000000E+02
  3.0000000E+02
  3.0000000E+02
  3.0000000E+02
  3.0000000E+02
  3.0000000E+02
  3.0000000E+02
  3.0000000E+02
  3.0000000E+02
  3.0000000E+02
  3.0000000E+02
  3.0000000E+02
  3.0000000E+02
  3.0000000E+02
  3.0000000E+02
  3.0000000E+02
  3.0000000E+02
  3.0000000E+02
  3.0000000E+02
  3.0000000E+02
  3.0000000E+02
  3.0000000E+02
  3.0000000E+02
  3.0000000E+02
  3.0000000E+02
  3.0000000E+02
  3.0000000E+02
  3.0000000E+02
  3.0000000E+02
  3.0000000E+02
  3.0000000E+02
  3.0000000E+02
  3.0000000E+02
  3.0000000E+02
  3.0000000E+02
  3.0000000E+02
  3.0000000E+02
  3.0000000E+02
  3.0000000E+02
  3.0000000E+02
  3.0000000E+02
  3.0000000E+02
  3.0000000E+02
  3.0000000E+02
  3.0000000E+02
  3.0000000E+02
  3.0000000E+02
  3.0000000E+02
  3.0000000E+02
  3.0000000E+02
  3.0000000E+02
  3.0000000E+02
  3.0000000E+02
  3.0000000E+02
  3.0000000E+02
  3.0000000E+02
  3.0000000E+02
  3.0000000E+02
  3.0000000E+02
  3.0000000E+02
  3.0000000E+02
  3.0000000E+02
  3.0000000E+02
  3.0000000E+02
  3.0000000E+02
  3.0000000E+02
  3.0000000E+02
  3.0000000E+02
  3.0000000E+02
  3.0000000E+02
  3.0000000E+02
  3.0000000E+02
  3.0000000E+02
  3.0000000E+02
  3.0000000E+02
  3.0000000E+02
  3.0000000E+02
  3.0000000E+02
  3.0000000E+02
  3.0000000E+02
  3.0000000E+02
  3.0000000E+02
  3.0000000E+02
  3.0000000E+02
  3.0000000E+02
  3.0000000E+02
  3.0000000E+02
  3.0000000E+02
  3.0000000E+02
  3.0000000E+02
  3.0000000E+02
  3.0000000E+02
  3.0000000E+02
  3.0000000E+02
  3.0000000E+02
  3.0000000E+02
  3.0000000E+02
  3.0000000E+02
  3.0000000E+02
  3.0000000E+02
  3.0000000E+02
  3.0000000E+02
  3.0000000E+02
  3.0000000E+02
  3.0000000E+02
  3.0000000E+02
  3.0000000E+02
  3.0000000E+02
  3.0000000E+02
  3.0000000E+02
  3.0000000E+02
  3.0000000E+02
  3.0000000E+02
  3.0000000E+02
  3.0000000E+02
  3.0000000E+02
  3.0000000E+02
  3.0000000E+02
  3.0000000E+02
  3.0000000E+02
  3.0000000E+02
  3.0000000E+02
  3.0000000E+02
  3.0000000E+02
  3.0000000E+02
  3.0000000E+02
  3.0000000E+02
  3.0000000E+02
  3.0000000E+02
  3.0000000E+02
  3.0000000E+02
  3.0000000E+02
  3.0000000E+02
  3.0000000E+02
  3.0000000E+02
  3.0000000E+02
  3.0000000E+02
  3.0000000E+02
  3.0000000E+02
  3.0000000E+02
  3.0000000E+02
  3.0000000E+02
  3.0000000E+02
  3.0000000E+02
  3.0000000E+02
  3.0000000E+02
  3.0000000E+02
  3.0000000E+02
  3.0000000E+02
  3.0000000E+02
  3.0000000E+02
  3.0000000E+02
  3.0000000E+02
  3.0000000E+02
  3.0000000E+02
  3.0000000E+02
  3.0000000E+02
  3.0000000E+02
  3.0000000E+02
  3.0000000E+02
  3.0000000E+02
  3.0000000E+02
  3.0000000E+02
  3.0000000E+02
  3.0000000E+02
  3.0000000E+02
  3.0000000E+02
  3.0000000E+02
  3.0000000E+02
  3.0000000E+02
  3.0000000E+02
  3.0000000E+02
  3.0000000E+02
  3.0000000E+02
  3.0000000E+02
  3.0000000E+02
  3.0000000E+02
  3.0000000E+02
  3.0000000E+02
  3.0000000E+02
  3.0000000E+02
  3.0000000E+02
  3.0000000E+02
  3.0000000E+02
  3.0000000E+02
  3.0000000E+02
  3.0000000E+02
  3.0000000E+02
  3.0000000E+02
  3.0000000E+02
  3.0000000E+02
  3.0000000E+02
  3.0000000E+02
  3.0000000E+02
  3.0000000E+02
  3.0000000E+02
  3.0000000E+02
  3.0000000E+02
  3.0000000E+02
  3.0000000E+02
  3.0000000E+02
  3.0000000E+02
  3.0000000E+02
  3.0000000E+02
  3.0000000E+02
  3.0000000E+02
  3.0000000E+02
  3.0000000E+02
  3.0000000E+02
  3.0000000E+02
  3.0000000E+02
  3.0000000E+02
  3.0000000E+02
  3.0000000E+02
  3.0000000E+02
  3.0000000E+02
  3.0000000E+02
  3.0000000E+02
  3.0000000E+02
  3.0000000E+02
  3.0000000E+02
  3.0000000E+02
  3.0000000E+02
  3.0000000E+02
  3.0000000E+02
  3.0000000E+02
  3.0000000E+02
  3.0000000E+02
  3.0000000E+02
  3.0000000E+02
  3.0000000E+02
  3.0000000E+02
  3.0000000E+02
  3.0000000E+02
  3.0000000E+02
  3.0000000E+02
  3.0000000E+02
  3.0000000E+02
  3.0000000E+02
  3.0000000E+02
  3.0000000E+02
  3.0000000E+02
  3.0000000E+02
  3.0000000E+02
  3.0000000E+02
  3.0000000E+02
  3.0000000E+02
  3.0000000E+02
  3.0000000E+02
  3.0000000E+02
  3.0000000E+02
  3.0000000E+02
  3.0000000E+02
  3.0000000E+02
  3.0000000E+02
  3.0000000E+02
  3.0000000E+02
  3.0000000E+02
  3.0000000E+02
  3.0000000E+02
  3.0000000E+02
  3.0000000E+02
  3.0000003E+02
  3.0000012E+02
  3.0000058E+02
  3.0000206E+02
  3.0000597E+02
  3.0001481E+02
  3.0003239E+02
  3.0006328E+02
  3.0011044E+02
  3.0017263E+02
  3.0024379E+02
  3.0031165E+02
  3.0035961E+02
  3.0037429E+02
  3.0035186E+02
  3.0029899E+02
  3.0023067E+02
  3.0016102E+02
  3.0010133E+02
  3.0005727E+02
  3.0002890E+02
  3.0001305E+02
  3.0000505E+02
  3.0000157E+02
  3.0000027E+02
  2.9999988E+02
  2.9999984E+02
  2.9999988E+02
  2.9999993E+02
  2.9999997E+02
  2.9999999E+02
  3.0000000E+02
  3.0000000E+02
  3.0000000E+02
  3.0000000E+02
  3.0000000E+02
  3.0000000E+02
  3.0000000E+02
  3.0000000E+02
  3.0000000E+02
  3.0000000E+02
  3.0000000E+02
  3.0000000E+02
  3.0000000E+02
  3.0000000E+02
  3.0000000E+02
  3.0000000E+02
  3.0000000E+02
  3.0000000E+02
  3.0000000E+02
  3.0000000E+02
  3.0000006E+02
  3.0000019E+02
  3.0000088E+02
  3.0000317E+02
  3.0000920E+02
  3.0002287E+02
  3.0005024E+02
  3.0009834E+02
  3.0017140E+02
  3.0026802E+02
  3.0037952E+02
  3.0048594E+02
  3.0056070E+02
  3.0058407E+02
  3.0054844E+02
  3.0046677E+02
  3.0035954E+02
  3.0025115E+02
  3.0015832E+02
  3.0008981E+02
  3.0004534E+02
  3.0002041E+02
  3.0000789E+02
  3.0000235E+02
  3.0000041E+02
  2.9999981E+02
  2.9999969E+02
  2.9999975E+02
  2.9999984E+02
  2.9999992E+02
  2.9999996E+02
  2.9999998E+02
  2.9999999E+02
  3.0000000E+02
  3.0000000E+02
  3.0000000E+02
  3.0000000E+02
  3.0000000E+02
  3.0000000E+02
  3.0000000E+02
  3.0000000E+02
  3.0000000E+02
  3.0000000E+02
  3.0000000E+02
  3.0000000E+02
  3.0000000E+02
  3.0000000E+02
  3.0000000E+02
  3.0000000E+02
  3.0000000E+02
  3.0000000E+02
  3.0000020E+02
  3.0000051E+02
  3.0000211E+02
  3.0000724E+02
  3.0002074E+02
  3.0005166E+02
  3.0011361E+02
  3.0022139E+02
  3.0038590E+02
  3.0060757E+02
  3.0086342E+02
  3.0110493E+02
  3.0127620E+02
  3.0132837E+02
  3.0124942E+02
  3.0106280E+02
  3.0081679E+02
  3.0056875E+02
  3.0035768E+02
  3.0020244E+02
  3.0010292E+02
  3.0004631E+02
  3.0001842E+02
  3.0000595E+02
  3.0000116E+02
  2.9999980E+02
  2.9999951E+02
  2.9999954E+02
  2.9999968E+02
  2.9999982E+02
  2.9999991E+02
  2.9999996E+02
  2.9999998E+02
  2.9999999E+02
  3.0000000E+02
  3.0000000E+02
  3.0000000E+02
  3.0000000E+02
  3.0000000E+02
  3.0000000E+02
  3.0000000E+02
  3.0000000E+02
  3.0000000E+02
  3.0000000E+02
  3.0000000E+02
  3.0000000E+02
  3.0000000E+02
  3.0000000E+02
  3.0000000E+02
  3.0000000E+02
  3.0000000E+02
  3.0000056E+02
  3.0000129E+02
  3.0000488E+02
  3.0001606E+02
  3.0004548E+02
  3.0011294E+02
  3.0024755E+02
  3.0048305E+02
  3.0084721E+02
  3.0133717E+02
  3.0190189E+02
  3.0243960E+02
  3.0282223E+02
  3.0294554E+02
  3.0277085E+02
  3.0234970E+02
  3.0180229E+02