<?xml version="1.0"?>
<VTKFile type="StructuredGrid" version="0.1" byte_order="LittleEndian">
  <StructuredGrid WholeExtent="0 50 0 20 0 5 0 50 0 20 0 5">
    <Piece Extent="0 50 0 20 0 5 0 50 0 20 0 5">
      <Points>
        <DataArray type="Float64" NumberOfComponents="3" format="ascii">
  0.0000000E+00  0.0000000E+00  0.0000000E+00
  1.0000000E-05  0.0000000E+00  0.0000000E+00
  2.0000000E-05  0.0000000E+00  0.0000000E+00
  3.0000000E-05  0.0000000E+00  0.0000000E+00
  4.0000000E-05  0.0000000E+00  0.0000000E+00
  5.0000000E-05  0.0000000E+00  0.0000000E+00
  6.0000000E-05  0.0000000E+00  0.0000000E+00
  7.0000000E-05  0.0000000E+00  0.0000000E+00
  8.0000000E-05  0.0000000E+00  0.0000000E+00
  9.0000000E-05  0.0000000E+00  0.0000000E+00
  1.0000000E-04  0.0000000E+00  0.0000000E+00
  1.1000000E-04  0.0000000E+00  0.0000000E+00
  1.2000000E-04  0.0000000E+00  0.0000000E+00
  1.3000000E-04  0.0000000E+00  0.0000000E+00
  1.4000000E-04  0.0000000E+00  0.0000000E+00
  1.5000000E-04  0.0000000E+00  0.0000000E+00
  1.6000000E-04  0.0000000E+00  0.0000000E+00
  1.7000000E-04  0.0000000E+00  0.0000000E+00
  1.8000000E-04  0.0000000E+00  0.0000000E+00
  1.9000000E-04  0.0000000E+00  0.0000000E+00
  2.0000000E-04  0.0000000E+00  0.0000000E+00
  2.1000000E-04  0.0000000E+00  0.0000000E+00
  2.2000000E-04  0.0000000E+00  0.0000000E+00
  2.3000000E-04  0.0000000E+00  0.0000000E+00
  2.4000000E-04  0.0000000E+00  0.0000000E+00
  2.5000000E-04  0.0000000E+00  0.0000000E+00
  2.6000000E-04  0.0000000E+00  0.0000000E+00
  2.7000000E-04  0.0000000E+00  0.0000000E+00
  2.8000000E-04  0.0000000E+00  0.0000000E+00
  2.9000000E-04  0.0000000E+00  0.0000000E+00
  3.0000000E-04  0.0000000E+00  0.0000000E+00
  3.1000000E-04  0.0000000E+00  0.0000000E+00
  3.2000000E-04  0.0000000E+00  0.0000000E+00
  3.3000000E-04  0.0000000E+00  0.0000000E+00
  3.4000000E-04  0.0000000E+00  0.0000000E+00
  3.5000000E-04  0.0000000E+00  0.0000000E+00
  3.6000000E-04  0.0000000E+00  0.0000000E+00
  3.7000000E-04  0.0000000E+00  0.0000000E+00
  3.8000000E-04  0.0000000E+00  0.0000000E+00
  3.9000000E-04  0.0000000E+00  0.0000000E+00
  4.0000000E-04  0.0000000E+00  0.0000000E+00
  4.1000000E-04  0.0000000E+00  0.0000000E+00
  4.2000000E-04  0.0000000E+00  0.0000000E+00
  4.3000000E-04  0.0000000E+00  0.0000000E+00
  4.4000000E-04  0.0000000E+00  0.0000000E+00
  4.5000000E-04  0.0000000E+00  0.0000000E+00
  4.6000000E-04  0.0000000E+00  0.0000000E+00
  4.7000000E-04  0.0000000E+00  0.0000000E+00
  4.8000000E-04  0.0000000E+00  0.0000000E+00
  4.9000000E-04  0.0000000E+00  0.0000000E+00
  5.0000000E-04  0.0000000E+00  0.0000000E+00
  0.0000000E+00  1.0000000E-05  0.0000000E+00
  1.0000000E-05  1.0000000E-05  0.0000000E+00
  2.0000000E-05  1.0000000E-05  0.0000000E+00
  3.0000000E-05  1.0000000E-05  0.0000000E+00
  4.0000000E-05  1.0000000E-05  0.0000000E+00
  5.0000000E-05  1.0000000E-05  0.0000000E+00
  6.0000000E-05  1.0000000E-05  0.0000000E+00
  7.0000000E-05  1.0000000E-05  0.0000000E+00
  8.0000000E-05  1.0000000E-05  0.0000000E+00
  9.0000000E-05  1.0000000E-05  0.0000000E+00
  1.0000000E-04  1.0000000E-05  0.0000000E+00
  1.1000000E-04  1.0000000E-05  0.0000000E+00
  1.2000000E-04  1.0000000E-05  0.0000000E+00
  1.3000000E-04  1.0000000E-05  0.0000000E+00
  1.4000000E-04  1.0000000E-05  0.0000000E+00
  1.5000000E-04  1.0000000E-05  0.0000000E+00
  1.6000000E-04  1.0000000E-05  0.0000000E+00
  1.7000000E-04  1.0000000E-05  0.0000000E+00
  1.8000000E-04  1.0000000E-05  0.0000000E+00
  1.9000000E-04  1.0000000E-05  0.0000000E+00
  2.0000000E-04  1.0000000E-05  0.0000000E+00
  2.1000000E-04  1.0000000E-05  0.0000000E+00
  2.2000000E-04  1.0000000E-05  0.0000000E+00
  2.3000000E-04  1.0000000E-05  0.0000000E+00
  2.4000000E-04  1.0000000E-05  0.0000000E+00
  2.5000000E-04  1.0000000E-05  0.0000000E+00
  2.6000000E-04  1.0000000E-05  0.0000000E+00
  2.7000000E-04  1.0000000E-05  0.0000000E+00
  2.8000000E-04  1.0000000E-05  0.0000000E+00
  2.9000000E-04  1.0000000E-05  0.0000000E+00
  3.0000000E-04  1.0000000E-05  0.0000000E+00
  3.1000000E-04  1.0000000E-05  0.0000000E+00
  3.2000000E-04  1.0000000E-05  0.0000000E+00
  3.3000000E-04  1.0000000E-05  0.0000000E+00
  3.4000000E-04  1.0000000E-05  0.0000000E+00
  3.5000000E-04  1.0000000E-05  0.0000000E+00
  3.6000000E-04  1.0000000E-05  0.0000000E+00
  3.7000000E-04  1.0000000E-05  0.0000000E+00
  3.8000000E-04  1.0000000E-05  0.0000000E+00
  3.9000000E-04  1.0000000E-05  0.0000000E+00
  4.0000000E-04  1.0000000E-05  0.0000000E+00
  4.1000000E-04  1.0000000E-05  0.0000000E+00
  4.2000000E-04  1.0000000E-05  0.0000000E+00
  4.3000000E-04  1.0000000E-05  0.0000000E+00
  4.4000000E-04  1.0000000E-05  0.0000000E+00
  4.5000000E-04  1.0000000E-05  0.0000000E+00
  4.6000000E-04  1.0000000E-05  0.0000000E+00
  4.7000000E-04  1.0000000E-05  0.0000000E+00
  4.8000000E-04  1.0000000E-05  0.0000000E+00
  4.9000000E-04  1.0000000E-05  0.0000000E+00
  5.0000000E-04  1.0000000E-05  0.0000000E+00
  0.0000000E+00  2.0000000E-05  0.0000000E+00
  1.0000000E-05  2.0000000E-05  0.0000000E+00
  2.0000000E-05  2.0000000E-05  0.0000000E+00
  3.0000000E-05  2.0000000E-05  0.0000000E+00
  4.0000000E-05  2.0000000E-05  0.0000000E+00
  5.0000000E-05  2.0000000E-05  0.0000000E+00
  6.0000000E-05  2.0000000E-05  0.0000000E+00
  7.0000000E-05  2.0000000E-05  0.0000000E+00
  8.0000000E-05  2.0000000E-05  0.0000000E+00
  9.0000000E-05  2.0000000E-05  0.0000000E+00
  1.0000000E-04  2.0000000E-05  0.0000000E+00
  1.1000000E-04  2.0000000E-05  0.0000000E+00
  1.2000000E-04  2.0000000E-05  0.0000000E+00
  1.3000000E-04  2.0000000E-05  0.0000000E+00
  1.4000000E-04  2.0000000E-05  0.0000000E+00
  1.5000000E-04  2.0000000E-05  0.0000000E+00
  1.6000000E-04  2.0000000E-05  0.0000000E+00
  1.7000000E-04  2.0000000E-05  0.0000000E+00
  1.8000000E-04  2.0000000E-05  0.0000000E+00
  1.9000000E-04  2.0000000E-05  0.0000000E+00
  2.0000000E-04  2.0000000E-05  0.0000000E+00
  2.1000000E-04  2.0000000E-05  0.0000000E+00
  2.2000000E-04  2.0000000E-05  0.0000000E+00
  2.3000000E-04  2.0000000E-05  0.0000000E+00
  2.4000000E-04  2.0000000E-05  0.0000000E+00
  2.5000000E-04  2.0000000E-05  0.0000000E+00
  2.6000000E-04  2.0000000E-05  0.0000000E+00
  2.7000000E-04  2.0000000E-05  0.0000000E+00
  2.8000000E-04  2.0000000E-05  0.0000000E+00
  2.9000000E-04  2.0000000E-05  0.0000000E+00
  3.0000000E-04  2.0000000E-05  0.0000000E+00
  3.1000000E-04  2.0000000E-05  0.0000000E+00
  3.2000000E-04  2.0000000E-05  0.0000000E+00
  3.3000000E-04  2.0000000E-05  0.0000000E+00
  3.4000000E-04  2.0000000E-05  0.0000000E+00
  3.5000000E-04  2.0000000E-05  0.0000000E+00
  3.6000000E-04  2.0000000E-05  0.0000000E+00
  3.7000000E-04  2.0000000E-05  0.0000000E+00
  3.8000000E-04  2.0000000E-05  0.0000000E+00
  3.9000000E-04  2.0000000E-05  0.0000000E+00
  4.0000000E-04  2.0000000E-05  0.0000000E+00
  4.1000000E-04  2.0000000E-05  0.0000000E+00
  4.2000000E-04  2.0000000E-05  0.0000000E+00
  4.3000000E-04  2.0000000E-05  0.0000000E+00
  4.4000000E-04  2.0000000E-05  0.0000000E+00
  4.5000000E-04  2.0000000E-05  0.0000000E+00
  4.6000000E-04  2.0000000E-05  0.0000000E+00
  4.7000000E-04  2.0000000E-05  0.0000000E+00
  4.8000000E-04  2.0000000E-05  0.0000000E+00
  4.9000000E-04  2.0000000E-05  0.0000000E+00
  5.0000000E-04  2.0000000E-05  0.0000000E+00
  0.0000000E+00  3.0000000E-05  0.0000000E+00
  1.0000000E-05  3.0000000E-05  0.0000000E+00
  2.0000000E-05  3.0000000E-05  0.0000000E+00
  3.0000000E-05  3.0000000E-05  0.0000000E+00
  4.0000000E-05  3.0000000E-05  0.0000000E+00
  5.0000000E-05  3.0000000E-05  0.0000000E+00
  6.0000000E-05  3.0000000E-05  0.0000000E+00
  7.0000000E-05  3.0000000E-05  0.0000000E+00
  8.0000000E-05  3.0000000E-05  0.0000000E+00
  9.0000000E-05  3.0000000E-05  0.0000000E+00
  1.0000000E-04  3.0000000E-05  0.0000000E+00
  1.1000000E-04  3.0000000E-05  0.0000000E+00
  1.2000000E-04  3.0000000E-05  0.0000000E+00
  1.3000000E-04  3.0000000E-05  0.0000000E+00
  1.4000000E-04  3.0000000E-05  0.0000000E+00
  1.5000000E-04  3.0000000E-05  0.0000000E+00
  1.6000000E-04  3.0000000E-05  0.0000000E+00
  1.7000000E-04  3.0000000E-05  0.0000000E+00
  1.8000000E-04  3.0000000E-05  0.0000000E+00
  1.9000000E-04  3.0000000E-05  0.0000000E+00
  2.0000000E-04  3.0000000E-05  0.0000000E+00
  2.1000000E-04  3.0000000E-05  0.0000000E+00
  2.2000000E-04  3.0000000E-05  0.0000000E+00
  2.3000000E-04  3.0000000E-05  0.0000000E+00
  2.4000000E-04  3.0000000E-05  0.0000000E+00
  2.5000000E-04  3.0000000E-05  0.0000000E+00
  2.6000000E-04  3.0000000E-05  0.0000000E+00
  2.7000000E-04  3.0000000E-05  0.0000000E+00
  2.8000000E-04  3.0000000E-05  0.0000000E+00
  2.9000000E-04  3.0000000E-05  0.0000000E+00
  3.0000000E-04  3.0000000E-05  0.0000000E+00
  3.1000000E-04  3.0000000E-05  0.0000000E+00
  3.2000000E-04  3.0000000E-05  0.0000000E+00
  3.3000000E-04  3.0000000E-05  0.0000000E+00
  3.4000000E-04  3.0000000E-05  0.0000000E+00
  3.5000000E-04  3.0000000E-05  0.0000000E+00
  3.6000000E-04  3.0000000E-05  0.0000000E+00
  3.7000000E-04  3.0000000E-05  0.0000000E+00
  3.8000000E-04  3.0000000E-05  0.0000000E+00
  3.9000000E-04  3.0000000E-05  0.0000000E+00
  4.0000000E-04  3.0000000E-05  0.0000000E+00
  4.1000000E-04  3.0000000E-05  0.0000000E+00
  4.2000000E-04  3.0000000E-05  0.0000000E+00
  4.3000000E-04  3.0000000E-05  0.0000000E+00
  4.4000000E-04  3.0000000E-05  0.0000000E+00
  4.5000000E-04  3.0000000E-05  0.0000000E+00
  4.6000000E-04  3.0000000E-05  0.0000000E+00
  4.7000000E-04  3.0000000E-05  0.0000000E+00
  4.8000000E-04  3.0000000E-05  0.0000000E+00
  4.9000000E-04  3.0000000E-05  0.0000000E+00
  5.0000000E-04  3.0000000E-05  0.0000000E+00
  0.0000000E+00  4.0000000E-05  0.0000000E+00
  1.0000000E-05  4.0000000E-05  0.0000000E+00
  2.0000000E-05  4.0000000E-05  0.0000000E+00
  3.0000000E-05  4.0000000E-05  0.0000000E+00
  4.0000000E-05  4.0000000E-05  0.0000000E+00
  5.0000000E-05  4.0000000E-05  0.0000000E+00
  6.0000000E-05  4.0000000E-05  0.0000000E+00
[...]
      <PointData Scalars="Temperature" Vectors="Displacement">
        <DataArray type="Float64" Name="Temperature" format="ascii">
  3.0000000E+02
  3.0000000E+02
  3.0000000E+02
  3.0000000E+02
  3.0000000E+02
  3.0000000E+02
  3.0000000E+02
  3.0000000E+02
  3.0000000E+02
  3.0000000E+02
  3.0000000E+02
  3.0000000E+02
  3.0000000E+02
  3.0000000E+02
  3.0000000E+02
  3.0000000E+02
  3.0000000E+02
  3.0000000E+02
  3.0000000E+02
  3.0000000E+02
  3.0000000E+02
  3.0000000E+02
  3.0000000E+02
  3.0000000E+02
  3.0000000E+02
  3.0000000E+02
  3.0000000E+02
  3.0000000E+02
  3.0000000E+02
  3.0000000E+02
  3.0000000E+02
  3.0000000E+02
  3.0000000E+02
  3.0000000E+02
  3.0000000E+02
  3.0000000E+02
  3.0000000E+02
  3.0000000E+02
  3.0000000E+02
  3.0000000E+02
  3.0000000E+02
  3.0000000E+02
  3.0000000E+02
  3.0000000E+02
  3.0000000E+02
  3.0000000E+02
  3.0000000E+02
  3.0000000E+02
  3.0000000E+02
  3.0000000E+02
  3.0000000E+02
  3.0000000E+02
  3.0000000E+02
  3.0000000E+02
  3.0000000E+02
  3.0000000E+02
  3.0000000E+02
  3.0000000E+02
  3.0000000E+02
  3.0000000E+02
  3.0000000E+02
  3.0000000E+02
  3.0000000E+02
  3.0000000E+02
  3.0000000E+02
  3.0000000E+02
  3.0000000E+02
  3.0000000E+02
  3.0000000E+02
  3.0000000E+02
  3.0000000E+02
  3.0000000E+02
  3.0000000E+02
  3.0000000E+02
  3.0000000E+02
  3.0000000E+02
  3.0000000E+02
  3.0000000E+02
  3.0000000E+02
  3.0000000E+02
  3.0000000E+02
  3.0000000E+02
  3.0000000E+02
  3.0000000E+02
  3.0000000E+02
  3.0000000E+02
  3.0000000E+02
  3.0000000E+02
  3.0000000E+02
  3.0000000E+02
  3.0000000E+02
  3.0000000E+02
  3.0000000E+02
  3.0000000E+02
  3.0000000E+02
  3.0000000E+02
  3.0000000E+02
  3.0000000E+02
  3.0000000E+02
  3.0000000E+02
  3.0000000E+02
  3.0000000E+02
  3.0000000E+02
  3.0000000E+02
  3.0000000E+02
  3.0000000E+02
  3.0000000E+02
  3.0000000E+02
  3.0000000E+02
  3.0000000E+02
  3.0000000E+02
  3.0000000E+02
  3.0000000E+02
  3.0000000E+02
  3.0000000E+02
  3.0000000E+02
  3.0000000E+02
  3.0000000E+02
  3.0000000E+02
  3.0000000E+02
  3.0000000E+02
  3.0000000E+02
  3.0000000E+02
  3.0000000E+02
  3.0000000E+02
  3.0000000E+02
  3.0000000E+02
  3.0000000E+02
  3.0000000E+02
  3.0000000E+02
  3.0000000E+02
  3.0000000E+02
  3.0000000E+02
  3.0000000E+02
  3.0000000E+02
  3.0000000E+02
  3.0000000E+02
  3.0000000E+02
  3.0000000E+02
  3.0000000E+02
  3.0000000E+02
  3.0000000E+02
  3.0000000E+02
  3.0000000E+02
  3.0000000E+02
  3.0000000E+02
  3.0000000E+02
  3.0000000E+02
  3.0000000E+02
  3.0000000E+02
  3.0000000E+02
  3.0000000E+02
  3.0000000E+02
  3.0000000E+02
  3.0000000E+02
  3.0000000E+02
  3.0000000E+02
  3.0000000E+02
  3.0000000E+02
  3.0000000E+02
  3.0000000E+02
  3.0000000E+02
  3.0000000E+02
  3.0000000E+02
  3.0000000E+02
  3.0000000E+02
  3.0000000E+02
  3.0000000E+02
  3.0000000E+02
  3.0000000E+02
  3.0000000E+02
  3.0000000E+02
  3.0000000E+02
  3.0000000E+02
  3.0000000E+02
  3.0000000E+02
  3.0000000E+02
  3.0000000E+02
  3.0000000E+02
  3.0000000E+02
  3.0000000E+02
  3.0000000E+02
  3.0000000E+02
  3.0000000E+02
  3.0000000E+02
  3.0000000E+02
  3.0000000E+02
  3.0000000E+02
  3.0000000E+02
  3.0000000E+02
  3.0000000E+02
  3.0000000E+02
  3.0000000E+02
  3.0000000E+02
  3.0000000E+02
  3.0000000E+02
  3.0000000E+02
  3.0000000E+02
  3.0000000E+02
  3.0000000E+02
  3.0000000E+02
  3.0000000E+02
  3.0000000E+02
  3.0000000E+02
  3.0000000E+02
  3.0000000E+02
  3.0000000E+02
  3.0000000E+02
  3.0000000E+02
  3.0000000E+02
  3.0000000E+02
  3.0000000E+02
  3.0000000E+02
  3.0000000E+02
  3.0000000E+02
  3.0000000E+02
  3.0000000E+02
  3.0000000E+02
  3.0000000E+02
  3.0000000E+02
  3.0000000E+02
  3.0000000E+02
  3.0000000E+02
  3.0000000E+02
  3.0000000E+02
  3.0000000E+02
  3.0000000E+02
  3.0000000E+02
  3.0000000E+02
  3.0000000E+02
  3.0000000E+02
  3.0000000E+02
  3.0000000E+02
  3.0000000E+02
  3.0000000E+02
  3.0000000E+02
  3.0000000E+02
  3.0000000E+02
  3.0000000E+02
  3.0000000E+02
  3.0000000E+02
  3.0000000E+02
  3.0000000E+02
  3.0000000E+02
  3.0000000E+02
  3.0000000E+02
  3.0000000E+02
  3.0000000E+02
  3.0000000E+02
  3.0000000E+02
  3.0000000E+02
  3.0000000E+02
  3.0000000E+02
  3.0000000E+02
  3.0000000E+02
  3.0000000E+02
  3.0000000E+02
  3.0000000E+02
  3.0000000E+02
  3.0000000E+02
  3.0000000E+02
  3.0000000E+02
  3.0000000E+02
  3.0000000E+02
  3.0000000E+02
  3.0000000E+02
  3.0000000E+02
  3.0000000E+02
  3.0000000E+02
  3.0000000E+02
  3.0000000E+02
  3.0000000E+02
  3.0000000E+02
  3.0000000E+02
  3.0000000E+02
  3.0000000E+02
  3.0000000E+02
  3.0000000E+02
  3.0000000E+02
  3.0000000E+02
  3.0000000E+02
  3.0000000E+02
  3.0000000E+02
  3.0000000E+02
  3.0000000E+02
  3.0000000E+02
  3.0000000E+02
  3.0000000E+02
  3.0000000E+02
  3.0000000E+02
  3.0000000E+02
  3.0000000E+02
  3.0000000E+02
  3.0000000E+02
  3.0000000E+02
  3.0000000E+02
  3.0000000E+02
  3.0000000E+02
  3.0000000E+02
  3.0000000E+02
  3.0000000E+02
  3.0000000E+02
  3.0000000E+02
  3.0000000E+02
  3.0000000E+02
  3.0000000E+02
  3.0000000E+02
  3.0000000E+02
  3.0000000E+02
  3.0000000E+02
  3.0000000E+02
  3.0000000E+02
  3.0000000E+02
  3.0000000E+02
  3.0000000E+02
  3.0000000E+02
  3.0000000E+02
  3.0000000E+02
  3.0000000E+02
  3.0000000E+02
  3.0000000E+02
  3.0000000E+02
  3.0000000E+02
  3.0000000E+02
  3.0000000E+02
  3.0000000E+02
  3.0000000E+02
  3.0000000E+02
  3.0000000E+02
  3.0000000E+02
  3.0000000E+02
  3.0000000E+02
  3.0000000E+02
  3.0000000E+02
  3.0000000E+02
  3.0000000E+02
  3.0000000E+02
  3.0000000E+02
  3.0000000E+02
  3.0000000E+02
  3.0000000E+02
  3.0000000E+02
  3.0000000E+02
  3.0000000E+02
  3.0000000E+02
  3.0000000E+02
  3.0000000E+02
  3.0000000E+02
  3.0000000E+02
  3.0000000E+02
  3.0000000E+02
  3.0000000E+02
  3.0000000E+02
  3.0000000E+02
  3.0000000E+02
  3.0000000E+02
  3.0000000E+02
  3.0000000E+02
  3.0000000E+02
  3.0000000E+02
  3.0000000E+02
  3.0000000E+02
  3.0000000E+02
  3.0000000E+02
  3.0000000E+02
  3.0000000E+02
  3.0000000E+02
  3.0000000E+02
  3.0000000E+02
  3.0000000E+02
  3.0000000E+02
  3.0000000E+02
  3.0000000E+02
  3.0000000E+02
  3.0000000E+02
  3.0000000E+02
  3.0000000E+02
  3.0000000E+02
  3.0000000E+02
  3.0000000E+02
  3.0000000E+02
  3.0000000E+02
  3.0000000E+02
  3.0000000E+02
  3.0000000E+02
  3.0000000E+02
  3.0000000E+02
  3.0000000E+02
  3.0000000E+02
  3.0000000E+02
  3.0000000E+02
  3.0000000E+02
  3.0000000E+02
  3.0000000E+02
  3.0000000E+02
  3.0000000E+02
  3.0000000E+02
  3.0000000E+02
  3.0000000E+02
  3.0000000E+02
  3.0000000E+02
  3.0000000E+02
  3.0000000E+02
  3.0000000E+02
  3.0000000E+02
  3.0000000E+02
  3.0000000E+02
  3.0000000E+02
  3.0000000E+02
  3.0000000E+02
  3.0000000E+02
  3.0000000E+02
  3.0000000E+02
  3.0000000E+02
  3.0000000E+02
  3.0000000E+02
  3.0000000E+02
  3.0000000E+02
  3.0000000E+02
  3.0000000E+02
  3.0000000E+02
  3.0000000E+02
  3.0000000E+02
  3.0000000E+02
  3.0000000E+02
  3.0000000E+02
  3.0000000E+02
  3.0000000E+02
  3.0000000E+02
  3.0000000E+02
  3.0000000E+02
  3.0000000E+02
  3.0000000E+02
  3.0000000E+02
  3.0000000E+02
  3.0000000E+02
  3.0000000E+02
  3.0000000E+02
  3.0000000E+02
  3.0000000E+02
  3.0000000E+02
  3.0000000E+02
  3.0000000E+02
  3.0000000E+02
  3.0000000E+02
  3.0000000E+02
  3.0000000E+02
  3.0000000E+02
  3.0000000E+02
  3.0000000E+02
  3.0000000E+02
  3.0000000E+02
  3.0000000E+02
  3.0000000E+02
  3.0000000E+02
  3.0000000E+02
  3.0000000E+02
  3.0000000E+02
  3.0000000E+02
  3.0000000E+02
  3.0000000E+02
  3.0000000E+02
  3.0000000E+02
  3.0000000E+02
  3.0000000E+02
  3.0000000E+02
  3.0000000E+02
  3.0000000E+02
  3.0000000E+02
  3.0000000E+02
  3.0000000E+02
  3.0000000E+02
  3.0000000E+02
  3.0000000E+02
  3.0000000E+02
  3.0000000E+02
  3.0000000E+02
  3.0000000E+02
  3.0000000E+02
  3.0000000E+02
  3.0000000E+02
  3.0000000E+02
  3.0000000E+02
  3.0000000E+02
  3.0000000E+02
  3.0000000E+02
  3.0000000E+02
  3.0000000E+02
  3.0000000E+02
  3.0000000E+02
  3.0000000E+02
  3.0000000E+02
  3.0000000E+02
  3.0000000E+02
  3.0000000E+02
  3.0000000E+02
  3.0000000E+02
  3.0000000E+02
  3.0000000E+02
  3.0000000E+02
  3.0000000E+02
  3.0000000E+02
  3.0000000E+02
  3.0000000E+02
  3.0000000E+02
  3.0000000E+02
  3.0000000E+02
  3.0000000E+02
  3.0000000E+02
  3.0000000E+02
  3.0000000E+02
  3.0000000E+02
  3.0000000E+02
  3.0000000E+02
  3.0000000E+02
  3.0000000E+02
  3.0000000E+02
  3.0000000E+02
  3.0000000E+02
  3.0000000E+02
  3.0000000E+02
  3.0000000E+02
  3.0000000E+02
  3.0000000E+02
  3.0000000E+02
  3.0000000E+02
  3.0000000E+02
  3.0000000E+02
  3.0000000E+02
  3.0000000E+02
  3.0000000E+02
  3.0000000E+02
  3.0000000E+02
  3.0000000E+02
  3.0000000E+02
  3.0000000E+02
  3.0000000E+02
  3.0000000E+02
  3.0000000E+02
  3.0000000E+02
  3.0000000E+02
  3.0000000E+02
  3.0000000E+02
  3.0000000E+02
  3.0000000E+02
  3.0000000E+02
  3.0000000E+02
  3.0000000E+02
  3.0000000E+02
  3.0000000E+02
  3.0000000E+02
  3.0000000E+02
  3.0000000E+02
  3.0000000E+02
  3.0000000E+02
  3.0000000E+02
  3.0000000E+02
  3.0000000E+02
  3.0000000E+02
  3.0000000E+02
  3.0000000E+02
  3.0000000E+02
  3.0000000E+02
  3.0000000E+02
  3.0000000E+02
  3.0000000E+02
  3.0000000E+02
  3.0000000E+02
  3.0000000E+02
  3.0000000E+02
  3.0000000E+02
  3.0000000E+02
  3.0000000E+02
  3.0000000E+02
  3.0000000E+02
  3.0000000E+02
  3.0000000E+02
  3.0000000E+02
  3.0000000E+02
  3.0000000E+02
  3.0000000E+02
  3.0000000E+02
  3.0000000E+02
  3.0000000E+02
  3.0000000E+02
  3.0000000E+02
  3.0000000E+02
  3.0000000E+02
  3.0000000E+02
  3.0000000E+02
  3.0000000E+02
  3.0000000E+02
  3.0000000E+02
  3.0000000E+02
  3.0000000E+02
  3.0000000E+02
  3.0000000E+02
  3.0000000E+02
  3.0000000E+02
  3.0000000E+02
  3.0000000E+02
  3.0000000E+02
  3.0000000E+02
  3.0000000E+02
  3.0000000E+02
  3.0000000E+02
  3.0000000E+02
  3.0000000E+02
  3.0000000E+02
  3.0000000E+02
  3.0000000E+02
  3.0000000E+02
  3.0000000E+02
  3.0000000E+02
  3.0000000E+02
  3.0000000E+02
  3.0000000E+02
  3.0000000E+02
  3.0000000E+02
  3.0000000E+02
  3.0000000E+02
  3.0000000E+02
  3.0000000E+02
  3.0000000E+02
  3.0000000E+02
  3.0000000E+02
  3.0000000E+02
  3.0000000E+02
  3.0000000E+02
  3.0000000E+02
  3.0000000E+02
  3.0000000E+02
  3.0000000E+02
  3.0000000E+02
  3.0000000E+02
  3.0000000E+02
  3.0000000E+02
  3.0000000E+02
  3.0000000E+02
  3.0000000E+02
  3.0000000E+02
  3.0000000E+02
  3.0000000E+02
  3.0000000E+02
  3.0000000E+02
  3.0000000E+02
  3.0000000E+02
  3.0000000E+02
  3.0000000E+02
  3.0000000E+02
  3.0000000E+02
  3.0000000E+02
  3.0000000E+02
  3.0000000E+02
  3.0000000E+02
  3.0000000E+02
  3.0000000E+02
  3.0000000E+02
  3.0000000E+02
  3.0000000E+02
  3.0000000E+02
  3.0000000E+02
  3.0000000E+02
  3.0000000E+02
  3.0000000E+02
  3.0000000E+02
  3.0000000E+02
  3.0000000E+02
  3.0000000E+02
  3.0000000E+02
  3.0000000E+02
  3.0000000E+02
  3.0000000E+02
  3.0000000E+02
  3.0000000E+02
  3.0000000E+02
  3.0000000E+02
  3.0000000E+02
  3.0000000E+02
  3.0000000E+02
  3.0000000E+02
  3.0000000E+02
  3.0000000E+02
  3.0000000E+02
  3.0000000E+02
  3.0000000E+02
  3.0000000E+02
  3.0000000E+02
  3.0000000E+02
  3.0000000E+02
  3.0000000E+02
  3.0000000E+02
  3.0000000E+02
  3.0000000E+02
  3.0000000E+02
  3.0000000E+02
  3.0000000E+02
  3.0000000E+02
  3.0000000E+02
  3.0000000E+02
  3.0000000E+02
  3.0000000E+02
  3.0000000E+02
  3.0000000E+02
  3.0000000E+02
  3.0000000E+02
  3.0000000E+02
  3.0000000E+02
  3.0000000E+02
  3.0000000E+02
  3.0000000E+02
  3.0000000E+02
  3.0000000E+02
  3.0000000E+02
  3.0000000E+02
  3.0000000E+02
  3.0000000E+02
  3.0000000E+02
  3.0000000E+02
  3.0000000E+02
  3.0000000E+02
  3.0000000E+02
  3.0000000E+02
  3.0000000E+02
  3.0000000E+02
  3.0000000E+02
  3.0000000E+02
  3.0000000E+02
  3.0000000E+02
  3.0000000E+02
  3.0000000E+02
  3.0000000E+02
  3.0000000E+02
  3.0000000E+02
  3.0000000E+02
  3.0000000E+02
  3.0000000E+02
  3.0000000E+02
  3.0000000E+02
  3.0000000E+02
  3.0000000E+02
  3.0000000E+02
  3.0000000E+02
  3.0000000E+02
  3.0000000E+02
  3.0000000E+02
  3.0000000E+02
  3.0000000E+02
  3.0000000E+02
  3.0000000E+02
  3.0000000E+02
  3.0000000E+02
  3.0000000E+02
  3.0000000E+02
  3.0000000E+02
  3.0000000E+02
  3.0000000E+02
  3.0000000E+02
  3.0000000E+02
  3.0000000E+02
  3.0000000E+02
  3.0000000E+02
  3.0000000E+02
  3.0000000E+02
  3.0000000E+02
  3.0000000E+02
  3.0000000E+02
  3.0000000E+02
  3.0000000E+02
  3.0000000E+02
  3.0000000E+02
  3.0000000E+02
  3.0000000E+02
  3.0000000E+02
  3.0000000E+02
  3.0000000E+02
  3.0000000E+02
  3.0000000E+02
  3.0000000E+02
  3.0000000E+02
  3.0000000E+02
  3.0000000E+02
  3.0000000E+02
  3.0000000E+02
  3.0000000E+02
  3.0000000E+02
  3.0000000E+02
  3.0000000E+02
  3.0000000E+02
  3.0000000E+02
  3.0000000E+02
  3.0000000E+02
  3.0000000E+02
  3.0000000E+02
  3.0000000E+02
  3.0000000E+02
  3.0000000E+02
  3.0000000E+02
  3.0000000E+02
  3.0000000E+02
  3.0000000E+02
  3.0000000E+02
  3.0000000E+02
  3.0000000E+02
  3.0000000E+02
  3.0000000E+02
  3.0000000E+02
  3.0000000E+02
  3.0000000E+02
  3.0000000E+02
  3.0000000E+02
  3.0000000E+02
  3.0000000E+02
  3.0000000E+02
  3.0000000E+02
  3.0000000E+02
  3.0000000E+02
  3.0000000E+02
  3.0000000E+02
  3.0000000E+02
  3.0000000E+02
  3.0000000E+02
  3.0000000E+02
  3.0000000E+02
  3.0000000E+02
  3.0000000E+02
  3.0000000E+02
  3.0000000E+02
  3.0000000E+02
  3.0000000E+02
  3.0000000E+02
  3.0000000E+02
  3.0000000E+02
  3.0000000E+02
  3.0000000E+02
  3.0000000E+02
  3.0000000E+02
  3.0000000E+02
  3.0000000E+02
  3.0000000E+02
  3.0000000E+02
  3.0000000E+02
  3.0000000E+02
  3.0000000E+02
  3.0000000E+02
  3.0000000E+02
  3.0000000E+02
  3.0000000E+02
  3.0000000E+02
  3.0000000E+02
  3.0000000E+02
  3.0000000E+02
  3.0000000E+02
  3.0000000E+02
  3.0000000E+02
  3.0000000E+02
  3.0000000E+02
  3.0000000E+02
  3.0000000E+02
  3.0000000E+02
  3.0000000E+02
  3.0000000E+02
  3.0000000E+02
  3.0000000E+02
  3.0000000E+02
  3.0000000E+02
  3.0000000E+02
  3.0000000E+02
  3.0000000E+02
  3.0000000E+02
  3.0000000E+02
  3.0000000E+02
  3.0000000E+02
  3.0000000E+02
  3.0000000E+02
  3.0000000E+02
  3.0000000E+02
  3.0000000E+02
  3.0000000E+02
  3.0000000E+02
  3.0000000E+02
  3.0000000E+02
  3.0000000E+02
  3.0000000E+02
  3.0000000E+02
  3.0000000E+02
  3.0000000E+02
  3.0000000E+02
  3.0000000E+02
  3.0000000E+02
  3.0000000E+02
  3.0000000E+02
  3.0000000E+02
  3.0000000E+02
  3.0000000E+02
  3.0000000E+02
  3.0000000E+02
  3.0000000E+02
  3.0000000E+02
  3.0000000E+02
  3.0000000E+02
  3.0000000E+02
  3.0000000E+02
  3.0000000E+02
  3.0000000E+02
  3.0000000E+02
  3.0000000E+02
  3.0000000E+02
  3.0000000E+02
  3.0000000E+02
  3.0000000E+02
  3.0000000E+02
  3.0000000E+02
  3.0000000E+02
  3.0000000E+02
  3.0000000E+02
  3.0000000E+02
  3.0000000E+02
  3.0000000E+02
  3.0000000E+02
  3.0000000E+02
  3.0000000E+02
  3.0000000E+02
  3.0000000E+02
  3.0000000E+02
  3.0000000E+02
  3.0000000E+02
  3.0000000E+02
  3.0000000E+02
  3.0000000E+02
  3.0000000E+02
  3.0000000E+02
  3.0000000E+02
  3.0000000E+02
  3.0000000E+02
  3.0000000E+02
  3.0000000E+02
  3.0000000E+02
  3.0000000E+02
  3.0000000E+02
  3.0000000E+02
  3.0000000E+02
  3.0000000E+02
  3.0000000E+02
  3.0000000E+02
  3.0000000E+02
  3.0000000E+02
  3.0000000E+02
  3.0000000E+02
  3.0000000E+02
  3.0000000E+02
  3.0000000E+02
  3.0000000E+02
  3.0000000E+02
  3.0000000E+02
  3.0000000E+02
  3.0000000E+02
  3.0000000E+02
  3.0000000E+02
  3.0000000E+02
  3.0000000E+02
  3.0000000E+02
  3.0000000E+02
  3.0000000E+02
  3.0000000E+02
  3.0000000E+02
  3.0000000E+02
  3.0000000E+02
  3.0000000E+02
  3.0000000E+02
  3.0000000E+02
  3.0000000E+02
  3.0000000E+02
  3.0000000E+02
  3.0000000E+02
  3.0000000E+02
  3.0000000E+02
  3.0000000E+02
  3.0000000E+02
  3.0000000E+02
  3.0000000E+02
  3.0000000E+02
  3.0000000E+02
  3.0000000E+02
  3.0000000E+02
  3.0000000E+02
  3.0000000E+02
  3.0000000E+02
  3.0000000E+02
  3.0000000E+02
  3.0000000E+02
  3.0000000E+02
  3.0000000E+02
  3.0000000E+02
  3.0000000E+02
  3.0000000E+02
  3.0000000E+02
  3.0000000E+02
  3.0000000E+02
  3.0000000E+02
  3.0000000E+02
  3.0000000E+02
  3.0000000E+02
  3.0000000E+02
  3.0000000E+02
  3.0000000E+02
  3.0000000E+02
  3.0000000E+02
  3.0000000E+02
  3.0000000E+02
  3.0000000E+02
  3.0000000E+02
  3.0000000E+02
  3.0000000E+02
  3.0000000E+02
  3.0000000E+02
  3.0000000E+02
  3.0000000E+02
  3.0000000E+02
  3.0000000E+02
  3.0000000E+02
  3.0000000E+02
  3.0000000E+02
  3.0000000E+02
  3.0000000E+02
  3.0000000E+02
  3.0000000E+02
  3.0000000E+02
  3.0000000E+02
  3.0000000E+02
  3.0000000E+02
  3.0000000E+02
  3.0000000E+02
  3.0000000E+02
  3.0000000E+02
  3.0000000E+02
  3.0000000E+02
  3.0000000E+02
  3.0000000E+02
  3.0000000E+02
  3.0000000E+02
  3.0000000E+02
  3.0000000E+02
  3.0000000E+02
  3.0000000E+02
  3.0000000E+02
  3.0000000E+02
  3.0000000E+02
  3.0000000E+02
  3.0000000E+02
  3.0000000E+02
  3.0000000E+02
  3.0000000E+02
  3.0000000E+02
  3.0000000E+02
  3.0000000E+02
  3.0000000E+02
  3.0000000E+02
  3.0000000E+02
  3.0000000E+02
  3.0000000E+02
  3.0000000E+02
  3.0000000E+02
  3.0000000E+02
  3.0000000E+02
  3.0000000E+02
  3.0000000E+02
  3.0000000E+02
  3.0000000E+02
  3.0000000E+02
  3.0000000E+02
  3.0380216E+02
  3.0392798E+02
  3.0430621E+02
  3.0493875E+02
  3.0582906E+02
  3.0698038E+02
  3.0839506E+02
  3.1007332E+02
  3.1201223E+02
  3.1420483E+02
  3.1663955E+02
  3.1930001E+02
  3.2216517E+02
  3.2520995E+02
  3.2840609E+02
  3.3172327E+02
  3.3513035E+02
  3.3859650E+02
  3.4209205E+02
  3.4558898E+02
  3.4906071E+02
  3.5248117E+02
  3.5582301E+02
  3.5905489E+02
  3.6213803E+02
  3.6502246E+02
  3.6764335E+02
  3.6991858E+02
  3.7174828E+02
  3.7301769E+02
  3.7360382E+02
  3.7338631E+02
  3.7226177E+02
  3.7015985E+02
  3.6705874E+02
  3.6299694E+02
  3.5807864E+02
  3.5247077E+02
  3.4639119E+02
  3.4008944E+02
  3.3382280E+02
  3.2783157E+02
  3.2231770E+02
  3.1742999E+02
  3.1325790E+02
  3.0983419E+02
  3.0714514E+02
  3.0514574E+02
  3.0377672E+02
  3.0298315E+02
  3.0272279E+02
  3.0382980E+02
  3.0395681E+02
  3.0433802E+02
  3.0497593E+02
  3.0587380E+02
  3.0703512E+02
  3.0846238E+02
  3.1015601E+02
  3.1211327E+02
  3.1432742E+02
  3.1678710E+02
  3.1947616E+02
  3.2237379E+02
  3.2545514E+02
  3.2869220E+02
  3.3205496E+02
  3.3551257E+02
  3.3903457E+02
  3.4259167E+02
  3.4615626E+02
  3.4970219E+02
  3.5320374E+02
  3.5663377E+02
  3.5996091E+02
  3.6314594E+02
  3.6613787E+02
  3.6887006E+02
  3.7125767E+02
  3.7319706E+02
  3.7456873E+02
  3.7524410E+02
  3.7509682E+02
  3.7401759E+02
  3.7193095E+02
  3.6881144E+02
  3.6469603E+02
  3.5968991E+02
  3.5396359E+02
  3.4774089E+02
  3.4127906E+02
  3.3484401E+02
  3.2868470E+02
  3.2301085E+02
  3.1797749E+02
  3.1367838E+02
  3.1014859E+02
  3.0737508E+02
  3.0531228E+02
  3.0389996E+02
  3.0308007E+02
  3.0281242E+02
  3.0390998E+02
  3.0403983E+02
  3.0443015E+02
  3.0508335E+02
  3.0600312E+02
  3.0719330E+02
  3.0865690E+02
  3.1039492E+02
  3.1240519E+02
  3.1468158E+02
  3.1721338E+02
  3.1998508E+02
  3.2297655E+02
  3.2616364E+02
  3.2951912E+02
  3.3301378E+02
  3.3661772E+02
  3.4030152E+02
  3.4403703E+02
  3.4779789E+02
  3.5155913E+02
  3.5529610E+02
  3.5898232E+02
  3.6258632E+02
  3.6606763E+02
  3.6937225E+02
  3.7242835E+02
  3.7514311E+02
  3.7740201E+02
  3.7907167E+02
  3.8000735E+02
  3.8006520E+02
  3.7911872E+02
  3.7707756E+02
  3.7390565E+02
  3.6963548E+02
  3.6437503E+02
  3.5830522E+02
  3.5166714E+02
  3.4474042E+02
  3.3781610E+02
  3.3116826E+02
  3.2502925E+02
  3.1957223E+02
  3.1490351E+02
  3.1106503E+02
  3.0804564E+02
  3.0579820E+02
  3.0425838E+02
  3.0336453E+02
  3.0307168E+02
  3.0403451E+02
  3.0416909E+02
  3.0457347E+02
  3.0525051E+02
  3.0620431E+02
  3.0743936E+02
  3.0895948E+02
  3.1076649E+02
  3.1285916E+02
  3.1523232E+02
  3.1787626E+02
  3.2077649E+02
  3.2391395E+02
  3.2726560E+02
  3.3080540E+02
  3.3450548E+02
  3.3833740E+02