<?xml version="1.0"?>
<VTKFile type="StructuredGrid" version="0.1" byte_order="LittleEndian">
  <StructuredGrid WholeExtent="0 50 0 20 0 5 0 50 0 20 0 5">
    <Piece Extent="0 50 0 20 0 5 0 50 0 20 0 5">
      <Points>
        <DataArray type="Float64" NumberOfComponents="3" format="ascii">
  0.0000000E+00  0.0000000E+00  0.0000000E+00
  1.0000000E-05  0.0000000E+00  0.0000000E+00
  2.0000000E-05  0.0000000E+00  0.0000000E+00
  3.0000000E-05  0.0000000E+00  0.0000000E+00
  4.0000000E-05  0.0000000E+00  0.0000000E+00
  5.0000000E-05  0.0000000E+00  0.0000000E+00
  6.0000000E-05  0.0000000E+00  0.0000000E+00
  7.0000000E-05  0.0000000E+00  0.0000000E+00
  8.0000000E-05  0.0000000E+00  0.0000000E+00
  9.0000000E-05  0.0000000E+00  0.0000000E+00
  1.0000000E-04  0.0000000E+00  0.0000000E+00
  1.1000000E-04  0.0000000E+00  0.0000000E+00
  1.2000000E-04  0.0000000E+00  0.0000000E+00
  1.3000000E-04  0.0000000E+00  0.0000000E+00
  1.4000000E-04  0.0000000E+00  0.0000000E+00
  1.5000000E-04  0.0000000E+00  0.0000000E+00
  1.6000000E-04  0.0000000E+00  0.0000000E+00
  1.7000000E-04  0.0000000E+00  0.0000000E+00
  1.8000000E-04  0.0000000E+00  0.0000000E+00
  1.9000000E-04  0.0000000E+00  0.0000000E+00
  2.0000000E-04  0.0000000E+00  0.0000000E+00
  2.1000000E-04  0.0000000E+00  0.0000000E+00
  2.2000000E-04  0.0000000E+00  0.0000000E+00
  2.3000000E-04  0.0000000E+00  0.0000000E+00
  2.4000000E-04  0.0000000E+00  0.0000000E+00
  2.5000000E-04  0.0000000E+00  0.0000000E+00
  2.6000000E-04  0.0000000E+00  0.0000000E+00
  2.7000000E-04  0.0000000E+00  0.0000000E+00
  2.8000000E-04  0.0000000E+00  0.0000000E+00
  2.9000000E-04  0.0000000E+00  0.0000000E+00
  3.0000000E-04  0.0000000E+00  0.0000000E+00
  3.1000000E-04  0.0000000E+00  0.0000000E+00
  3.2000000E-04  0.0000000E+00  0.0000000E+00
  3.3000000E-04  0.0000000E+00  0.0000000E+00
  3.4000000E-04  0.0000000E+00  0.0000000E+00
  3.5000000E-04  0.0000000E+00  0.0000000E+00
  3.6000000E-04  0.0000000E+00  0.0000000E+00
  3.7000000E-04  0.0000000E+00  0.0000000E+00
  3.8000000E-04  0.0000000E+00  0.0000000E+00
  3.9000000E-04  0.0000000E+00  0.0000000E+00
  4.0000000E-04  0.0000000E+00  0.0000000E+00
  4.1000000E-04  0.0000000E+00  0.0000000E+00
  4.2000000E-04  0.0000000E+00  0.0000000E+00
  4.3000000E-04  0.0000000E+00  0.0000000E+00
  4.4000000E-04  0.0000000E+00  0.0000000E+00
  4.5000000E-04  0.0000000E+00  0.0000000E+00
  4.6000000E-04  0.0000000E+00  0.0000000E+00
  4.7000000E-04  0.0000000E+00  0.0000000E+00
  4.8000000E-04  0.0000000E+00  0.0000000E+00
  4.9000000E-04  0.0000000E+00  0.0000000E+00
  5.0000000E-04  0.0000000E+00  0.0000000E+00
  0.0000000E+00  1.0000000E-05  0.0000000E+00
  1.0000000E-05  1.0000000E-05  0.0000000E+00
  2.0000000E-05  1.0000000E-05  0.0000000E+00
  3.0000000E-05  1.0000000E-05  0.0000000E+00
  4.0000000E-05  1.0000000E-05  0.0000000E+00
  5.0000000E-05  1.0000000E-05  0.0000000E+00
  6.0000000E-05  1.0000000E-05  0.0000000E+00
  7.0000000E-05  1.0000000E-05  0.0000000E+00
  8.0000000E-05  1.0000000E-05  0.0000000E+00
  9.0000000E-05  1.0000000E-05  0.0000000E+00
  1.0000000E-04  1.0000000E-05  0.0000000E+00
  1.1000000E-04  1.0000000E-05  0.0000000E+00
  1.2000000E-04  1.0000000E-05  0.0000000E+00
  1.3000000E-04  1.0000000E-05  0.0000000E+00
  1.4000000E-04  1.0000000E-05  0.0000000E+00
  1.5000000E-04  1.0000000E-05  0.0000000E+00
  1.6000000E-04  1.0000000E-05  0.0000000E+00
  1.7000000E-04  1.0000000E-05  0.0000000E+00
  1.8000000E-04  1.0000000E-05  0.0000000E+00
  1.9000000E-04  1.0000000E-05  0.0000000E+00
  2.0000000E-04  1.0000000E-05  0.0000000E+00
  2.1000000E-04  1.0000000E-05  0.0000000E+00
  2.2000000E-04  1.0000000E-05  0.0000000E+00
  2.3000000E-04  1.0000000E-05  0.0000000E+00
  2.4000000E-04  1.0000000E-05  0.0000000E+00
  2.5000000E-04  1.0000000E-05  0.0000000E+00
  2.6000000E-04  1.0000000E-05  0.0000000E+00
  2.7000000E-04  1.0000000E-05  0.0000000E+00
  2.8000000E-04  1.0000000E-05  0.0000000E+00
  2.9000000E-04  1.0000000E-05  0.0000000E+00
  3.0000000E-04  1.0000000E-05  0.0000000E+00
  3.1000000E-04  1.0000000E-05  0.0000000E+00
  3.2000000E-04  1.0000000E-05  0.0000000E+00
  3.3000000E-04  1.0000000E-05  0.0000000E+00
  3.4000000E-04  1.0000000E-05  0.0000000E+00
  3.5000000E-04  1.0000000E-05  0.0000000E+00
  3.6000000E-04  1.0000000E-05  0.0000000E+00
  3.7000000E-04  1.0000000E-05  0.0000000E+00
  3.8000000E-04  1.0000000E-05  0.0000000E+00
  3.9000000E-04  1.0000000E-05  0.0000000E+00
  4.0000000E-04  1.0000000E-05  0.0000000E+00
  4.1000000E-04  1.0000000E-05  0.0000000E+00
  4.2000000E-04  1.0000000E-05  0.0000000E+00
  4.3000000E-04  1.0000000E-05  0.0000000E+00
  4.4000000E-04  1.0000000E-05  0.0000000E+00
  4.5000000E-04  1.0000000E-05  0.0000000E+00
  4.6000000E-04  1.0000000E-05  0.0000000E+00
  4.7000000E-04  1.0000000E-05  0.0000000E+00
  4.8000000E-04  1.0000000E-05  0.0000000E+00
  4.9000000E-04  1.0000000E-05  0.0000000E+00
  5.0000000E-04  1.0000000E-05  0.0000000E+00
  0.0000000E+00  2.0000000E-05  0.0000000E+00
  1.0000000E-05  2.0000000E-05  0.0000000E+00
  2.0000000E-05  2.0000000E-05  0.0000000E+00
  3.0000000E-05  2.0000000E-05  0.0000000E+00
  4.0000000E-05  2.0000000E-05  0.0000000E+00
  5.0000000E-05  2.0000000E-05  0.0000000E+00
  6.0000000E-05  2.0000000E-05  0.0000000E+00
  7.0000000E-05  2.0000000E-05  0.0000000E+00
  8.0000000E-05  2.0000000E-05  0.0000000E+00
  9.0000000E-05  2.0000000E-05  0.0000000E+00
  1.0000000E-04  2.0000000E-05  0.0000000E+00
  1.1000000E-04  2.0000000E-05  0.0000000E+00
  1.2000000E-04  2.0000000E-05  0.0000000E+00
  1.3000000E-04  2.0000000E-05  0.0000000E+00
  1.4000000E-04  2.0000000E-05  0.0000000E+00
  1.5000000E-04  2.0000000E-05  0.0000000E+00
  1.6000000E-04  2.0000000E-05  0.0000000E+00
  1.7000000E-04  2.0000000E-05  0.0000000E+00
  1.8000000E-04  2.0000000E-05  0.0000000E+00
  1.9000000E-04  2.0000000E-05  0.0000000E+00
  2.0000000E-04  2.0000000E-05  0.0000000E+00
  2.1000000E-04  2.0000000E-05  0.0000000E+00
  2.2000000E-04  2.0000000E-05  0.0000000E+00
  2.3000000E-04  2.0000000E-05  0.0000000E+00
  2.4000000E-04  2.0000000E-05  0.0000000E+00
  2.5000000E-04  2.0000000E-05  0.0000000E+00
  2.6000000E-04  2.0000000E-05  0.0000000E+00
  2.7000000E-04  2.0000000E-05  0.0000000E+00
  2.8000000E-04  2.0000000E-05  0.0000000E+00
  2.9000000E-04  2.0000000E-05  0.0000000E+00
  3.0000000E-04  2.0000000E-05  0.0000000E+00
  3.1000000E-04  2.0000000E-05  0.0000000E+00
  3.2000000E-04  2.0000000E-05  0.0000000E+00
  3.3000000E-04  2.0000000E-05  0.0000000E+00
  3.4000000E-04  2.0000000E-05  0.0000000E+00
  3.5000000E-04  2.0000000E-05  0.0000000E+00
  3.6000000E-04  2.0000000E-05  0.0000000E+00
  3.7000000E-04  2.0000000E-05  0.0000000E+00
  3.8000000E-04  2.0000000E-05  0.0000000E+00
  3.9000000E-04  2.0000000E-05  0.0000000E+00
  4.0000000E-04  2.0000000E-05  0.0000000E+00
  4.1000000E-04  2.0000000E-05  0.0000000E+00
  4.2000000E-04  2.0000000E-05  0.0000000E+00
  4.3000000E-04  2.0000000E-05  0.0000000E+00
  4.4000000E-04  2.0000000E-05  0.0000000E+00
  4.5000000E-04  2.0000000E-05  0.0000000E+00
  4.6000000E-04  2.0000000E-05  0.0000000E+00
  4.7000000E-04  2.0000000E-05  0.0000000E+00
  4.8000000E-04  2.0000000E-05  0.0000000E+00
  4.9000000E-04  2.0000000E-05  0.0000000E+00
  5.0000000E-04  2.0000000E-05  0.0000000E+00
  0.0000000E+00  3.0000000E-05  0.0000000E+00
  1.0000000E-05  3.0000000E-05  0.0000000E+00
  2.0000000E-05  3.0000000E-05  0.0000000E+00
  3.0000000E-05  3.0000000E-05  0.0000000E+00
  4.0000000E-05  3.0000000E-05  0.0000000E+00
  5.0000000E-05  3.0000000E-05  0.0000000E+00
  6.0000000E-05  3.0000000E-05  0.0000000E+00
  7.0000000E-05  3.0000000E-05  0.0000000E+00
  8.0000000E-05  3.0000000E-05  0.0000000E+00
  9.0000000E-05  3.0000000E-05  0.0000000E+00
  1.0000000E-04  3.0000000E-05  0.0000000E+00
  1.1000000E-04  3.0000000E-05  0.0000000E+00
  1.2000000E-04  3.0000000E-05  0.0000000E+00
  1.3000000E-04  3.0000000E-05  0.0000000E+00
  1.4000000E-04  3.0000000E-05  0.0000000E+00
  1.5000000E-04  3.0000000E-05  0.0000000E+00
  1.6000000E-04  3.0000000E-05  0.0000000E+00
  1.7000000E-04  3.0000000E-05  0.0000000E+00
  1.8000000E-04  3.0000000E-05  0.0000000E+00
  1.9000000E-04  3.0000000E-05  0.0000000E+00
  2.0000000E-04  3.0000000E-05  0.0000000E+00
  2.1000000E-04  3.0000000E-05  0.0000000E+00
  2.2000000E-04  3.0000000E-05  0.0000000E+00
  2.3000000E-04  3.0000000E-05  0.0000000E+00
  2.4000000E-04  3.0000000E-05  0.0000000E+00
  2.5000000E-04  3.0000000E-05  0.0000000E+00
  2.6000000E-04  3.0000000E-05  0.0000000E+00
  2.7000000E-04  3.0000000E-05  0.0000000E+00
  2.8000000E-04  3.0000000E-05  0.0000000E+00
  2.9000000E-04  3.0000000E-05  0.0000000E+00
  3.0000000E-04  3.0000000E-05  0.0000000E+00
  3.1000000E-04  3.0000000E-05  0.0000000E+00
  3.2000000E-04  3.0000000E-05  0.0000000E+00
  3.3000000E-04  3.0000000E-05  0.0000000E+00
  3.4000000E-04  3.0000000E-05  0.0000000E+00
  3.5000000E-04  3.0000000E-05  0.0000000E+00
  3.6000000E-04  3.0000000E-05  0.0000000E+00
  3.7000000E-04  3.0000000E-05  0.0000000E+00
  3.8000000E-04  3.0000000E-05  0.0000000E+00
  3.9000000E-04  3.0000000E-05  0.0000000E+00
  4.0000000E-04  3.0000000E-05  0.0000000E+00
  4.1000000E-04  3.0000000E-05  0.0000000E+00
  4.2000000E-04  3.0000000E-05  0.0000000E+00
  4.3000000E-04  3.0000000E-05  0.0000000E+00
  4.4000000E-04  3.0000000E-05  0.0000000E+00
  4.5000000E-04  3.0000000E-05  0.0000000E+00
  4.6000000E-04  3.0000000E-05  0.0000000E+00
  4.7000000E-04  3.0000000E-05  0.0000000E+00
  4.8000000E-04  3.0000000E-05  0.0000000E+00
  4.9000000E-04  3.0000000E-05  0.0000000E+00
  5.0000000E-04  3.0000000E-05  0.0000000E+00
  0.0000000E+00  4.0000000E-05  0.0000000E+00
  1.0000000E-05  4.0000000E-05  0.0000000E+00
  2.0000000E-05  4.0000000E-05  0.0000000E+00
  3.0000000E-05  4.0000000E-05  0.0000000E+00
  4.0000000E-05  4.0000000E-05  0.0000000E+00
  5.0000000E-05  4.0000000E-05  0.0000000E+00
  6.0000000E-05  4.0000000E-05  0.0000000E+00
[...]
      <PointData Scalars="Temperature" Vectors="Displacement">
        <DataArray type="Float64" Name="Temperature" format="ascii">
  3.0000000E+02
  3.0000000E+02
  3.0000000E+02
  3.0000000E+02
  3.0000000E+02
  3.0000000E+02
  3.0000000E+02
  3.0000000E+02
  3.0000000E+02
  3.0000000E+02
  3.0000000E+02
  3.0000000E+02
  3.0000000E+02
  3.0000000E+02
  3.0000000E+02
  3.0000000E+02
  3.0000000E+02
  3.0000000E+02
  3.0000000E+02
  3.0000000E+02
  3.0000000E+02
  3.0000000E+02
  3.0000000E+02
  3.0000000E+02
  3.0000000E+02
  3.0000000E+02
  3.0000000E+02
  3.0000000E+02
  3.0000000E+02
  3.0000000E+02
  3.0000000E+02
  3.0000000E+02
  3.0000000E+02
  3.0000000E+02
  3.0000000E+02
  3.0000000E+02
  3.0000000E+02
  3.0000000E+02
  3.0000000E+02
  3.0000000E+02
  3.0000000E+02
  3.0000000E+02
  3.0000000E+02
  3.0000000E+02
  3.0000000E+02
  3.0000000E+02
  3.0000000E+02
  3.0000000E+02
  3.0000000E+02
  3.0000000E+02
  3.0000000E+02
  3.0000000E+02
  3.0000000E+02
  3.0000000E+02
  3.0000000E+02
  3.0000000E+02
  3.0000000E+02
  3.0000000E+02
  3.0000000E+02
  3.0000000E+02
  3.0000000E+02
  3.0000000E+02
  3.0000000E+02
  3.0000000E+02
  3.0000000E+02
  3.0000000E+02
  3.0000000E+02
  3.0000000E+02
  3.0000000E+02
  3.0000000E+02
  3.0000000E+02
  3.0000000E+02
  3.0000000E+02
  3.0000000E+02
  3.0000000E+02
  3.0000000E+02
  3.0000000E+02
  3.0000000E+02
  3.0000000E+02
  3.0000000E+02
  3.0000000E+02
  3.0000000E+02
  3.0000000E+02
  3.0000000E+02
  3.0000000E+02
  3.0000000E+02
  3.0000000E+02
  3.0000000E+02
  3.0000000E+02
  3.0000000E+02
  3.0000000E+02
  3.0000000E+02
  3.0000000E+02
  3.0000000E+02
  3.0000000E+02
  3.0000000E+02
  3.0000000E+02
  3.0000000E+02
  3.0000000E+02
  3.0000000E+02
  3.0000000E+02
  3.0000000E+02
  3.0000000E+02
  3.0000000E+02
  3.0000000E+02
  3.0000000E+02
  3.0000000E+02
  3.0000000E+02
  3.0000000E+02
  3.0000000E+02
  3.0000000E+02
  3.0000000E+02
  3.0000000E+02
  3.0000000E+02
  3.0000000E+02
  3.0000000E+02
  3.0000000E+02
  3.0000000E+02
  3.0000000E+02
  3.0000000E+02
  3.0000000E+02
  3.0000000E+02
  3.0000000E+02
  3.0000000E+02
  3.0000000E+02
  3.0000000E+02
  3.0000000E+02
  3.0000000E+02
  3.0000000E+02
  3.0000000E+02
  3.0000000E+02
  3.0000000E+02
  3.0000000E+02
  3.0000000E+02
  3.0000000E+02
  3.0000000E+02
  3.0000000E+02
  3.0000000E+02
  3.0000000E+02
  3.0000000E+02
  3.0000000E+02
  3.0000000E+02
  3.0000000E+02
  3.0000000E+02
  3.0000000E+02
  3.0000000E+02
  3.0000000E+02
  3.0000000E+02
  3.0000000E+02
  3.0000000E+02
  3.0000000E+02
  3.0000000E+02
  3.0000000E+02
  3.0000000E+02
  3.0000000E+02
  3.0000000E+02
  3.0000000E+02
  3.0000000E+02
  3.0000000E+02
  3.0000000E+02
  3.0000000E+02
  3.0000000E+02
  3.0000000E+02
  3.0000000E+02
  3.0000000E+02
  3.0000000E+02
  3.0000000E+02
  3.0000000E+02
  3.0000000E+02
  3.0000000E+02
  3.0000000E+02
  3.0000000E+02
  3.0000000E+02
  3.0000000E+02
  3.0000000E+02
  3.0000000E+02
  3.0000000E+02
  3.0000000E+02
  3.0000000E+02
  3.0000000E+02
  3.0000000E+02
  3.0000000E+02
  3.0000000E+02
  3.0000000E+02
  3.0000000E+02
  3.0000000E+02
  3.0000000E+02
  3.0000000E+02
  3.0000000E+02
  3.0000000E+02
  3.0000000E+02
  3.0000000E+02
  3.0000000E+02
  3.0000000E+02
  3.0000000E+02
  3.0000000E+02
  3.0000000E+02
  3.0000000E+02
  3.0000000E+02
  3.0000000E+02
  3.0000000E+02
  3.0000000E+02
  3.0000000E+02
  3.0000000E+02
  3.0000000E+02
  3.0000000E+02
  3.0000000E+02
  3.0000000E+02
  3.0000000E+02
  3.0000000E+02
  3.0000000E+02
  3.0000000E+02
  3.0000000E+02
  3.0000000E+02
  3.0000000E+02
  3.0000000E+02
  3.0000000E+02
  3.0000000E+02
  3.0000000E+02
  3.0000000E+02
  3.0000000E+02
  3.0000000E+02
  3.0000000E+02
  3.0000000E+02
  3.0000000E+02
  3.0000000E+02
  3.0000000E+02
  3.0000000E+02
  3.0000000E+02
  3.0000000E+02
  3.0000000E+02
  3.0000000E+02
  3.0000000E+02
  3.0000000E+02
  3.0000000E+02
  3.0000000E+02
  3.0000000E+02
  3.0000000E+02
  3.0000000E+02
  3.0000000E+02
  3.0000000E+02
  3.0000000E+02
  3.0000000E+02
  3.0000000E+02
  3.0000000E+02
  3.0000000E+02
  3.0000000E+02
  3.0000000E+02
  3.0000000E+02
  3.0000000E+02
  3.0000000E+02
  3.0000000E+02
  3.0000000E+02
  3.0000000E+02
  3.0000000E+02
  3.0000000E+02
  3.0000000E+02
  3.0000000E+02
  3.0000000E+02
  3.0000000E+02
  3.0000000E+02
  3.0000000E+02
  3.0000000E+02
  3.0000000E+02
  3.0000000E+02
  3.0000000E+02
  3.0000000E+02
  3.0000000E+02
  3.0000000E+02
  3.0000000E+02
  3.0000000E+02
  3.0000000E+02
  3.0000000E+02
  3.0000000E+02
  3.0000000E+02
  3.0000000E+02
  3.0000000E+02
  3.0000000E+02
  3.0000000E+02
  3.0000000E+02
  3.0000000E+02
  3.0000000E+02
  3.0000000E+02
  3.0000000E+02
  3.0000000E+02
  3.0000000E+02
  3.0000000E+02
  3.0000000E+02
  3.0000000E+02
  3.0000000E+02
  3.0000000E+02
  3.0000000E+02
  3.0000000E+02
  3.0000000E+02
  3.0000000E+02
  3.0000000E+02
  3.0000000E+02
  3.0000000E+02
  3.0000000E+02
  3.0000000E+02
  3.0000000E+02
  3.0000000E+02
  3.0000000E+02
  3.0000000E+02
  3.0000000E+02
  3.0000000E+02
  3.0000000E+02
  3.0000000E+02
  3.0000000E+02
  3.0000000E+02
  3.0000000E+02
  3.0000000E+02
  3.0000000E+02
  3.0000000E+02
  3.0000000E+02
  3.0000000E+02
  3.0000000E+02
  3.0000000E+02
  3.0000000E+02
  3.0000000E+02
  3.0000000E+02
  3.0000000E+02
  3.0000000E+02
  3.0000000E+02
  3.0000000E+02
  3.0000000E+02
  3.0000000E+02
  3.0000000E+02
  3.0000000E+02
  3.0000000E+02
  3.0000000E+02
  3.0000000E+02
  3.0000000E+02
  3.0000000E+02
  3.0000000E+02
  3.0000000E+02
  3.0000000E+02
  3.0000000E+02
  3.0000000E+02
  3.0000000E+02
  3.0000000E+02
  3.0000000E+02
  3.0000000E+02
  3.0000000E+02
  3.0000000E+02
  3.0000000E+02
  3.0000000E+02
  3.0000000E+02
  3.0000000E+02
  3.0000000E+02
  3.0000000E+02
  3.0000000E+02
  3.0000000E+02
  3.0000000E+02
  3.0000000E+02
  3.0000000E+02
  3.0000000E+02
  3.0000000E+02
  3.0000000E+02
  3.0000000E+02
  3.0000000E+02
  3.0000000E+02
  3.0000000E+02
  3.0000000E+02
  3.0000000E+02
  3.0000000E+02
  3.0000000E+02
  3.0000000E+02
  3.0000000E+02
  3.0000000E+02
  3.0000000E+02
  3.0000000E+02
  3.0000000E+02
  3.0000000E+02
  3.0000000E+02
  3.0000000E+02
  3.0000000E+02
  3.0000000E+02
  3.0000000E+02
  3.0000000E+02
  3.0000000E+02
  3.0000000E+02
  3.0000000E+02
  3.0000000E+02
  3.0000000E+02
  3.0000000E+02
  3.0000000E+02
  3.0000000E+02
  3.0000000E+02
  3.0000000E+02
  3.0000000E+02
  3.0000000E+02
  3.0000000E+02
  3.0000000E+02
  3.0000000E+02
  3.0000000E+02
  3.0000000E+02
  3.0000000E+02
  3.0000000E+02
  3.0000000E+02
  3.0000000E+02
  3.0000000E+02
  3.0000000E+02
  3.0000000E+02
  3.0000000E+02
  3.0000000E+02
  3.0000000E+02
  3.0000000E+02
  3.0000000E+02
  3.0000000E+02
  3.0000000E+02
  3.0000000E+02
  3.0000000E+02
  3.0000000E+02
  3.0000000E+02
  3.0000000E+02
  3.0000000E+02
  3.0000000E+02
  3.0000000E+02
  3.0000000E+02
  3.0000000E+02
  3.0000000E+02
  3.0000000E+02
  3.0000000E+02
  3.0000000E+02
  3.0000000E+02
  3.0000000E+02
  3.0000000E+02
  3.0000000E+02
  3.0000000E+02
  3.0000000E+02
  3.0000000E+02
  3.0000000E+02
  3.0000000E+02
  3.0000000E+02
  3.0000000E+02
  3.0000000E+02
  3.0000000E+02
  3.0000000E+02
  3.0000000E+02
  3.0000000E+02
  3.0000000E+02
  3.0000000E+02
  3.0000000E+02
  3.0000000E+02
  3.0000000E+02
  3.0000000E+02
  3.0000000E+02
  3.0000000E+02
  3.0000000E+02
  3.0000000E+02
  3.0000000E+02
  3.0000000E+02
  3.0000000E+02
  3.0000000E+02
  3.0000000E+02
  3.0000000E+02
  3.0000000E+02
  3.0000000E+02
  3.0000000E+02
  3.0000000E+02
  3.0000000E+02
  3.0000000E+02
  3.0000000E+02
  3.0000000E+02
  3.0000000E+02
  3.0000000E+02
  3.0000000E+02
  3.0000000E+02
  3.0000000E+02
  3.0000000E+02
  3.0000000E+02
  3.0000000E+02
  3.0000000E+02
  3.0000000E+02
  3.0000000E+02
  3.0000000E+02
  3.0000000E+02
  3.0000000E+02
  3.0000000E+02
  3.0000000E+02
  3.0000000E+02
  3.0000000E+02
  3.0000000E+02
  3.0000000E+02
  3.0000000E+02
  3.0000000E+02
  3.0000000E+02
  3.0000000E+02
  3.0000000E+02
  3.0000000E+02
  3.0000000E+02
  3.0000000E+02
  3.0000000E+02
  3.0000000E+02
  3.0000000E+02
  3.0000000E+02
  3.0000000E+02
  3.0000000E+02
  3.0000000E+02
  3.0000000E+02
  3.0000000E+02
  3.0000000E+02
  3.0000000E+02
  3.0000000E+02
  3.0000000E+02
  3.0000000E+02
  3.0000000E+02
  3.0000000E+02
  3.0000000E+02
  3.0000000E+02
  3.0000000E+02
  3.0000000E+02
  3.0000000E+02
  3.0000000E+02
  3.0000000E+02
  3.0000000E+02
  3.0000000E+02
  3.0000000E+02
  3.0000000E+02
  3.0000000E+02
  3.0000000E+02
  3.0000000E+02
  3.0000000E+02
  3.0000000E+02
  3.0000000E+02
  3.0000000E+02
  3.0000000E+02
  3.0000000E+02
  3.0000000E+02
  3.0000000E+02
  3.0000000E+02
  3.0000000E+02
  3.0000000E+02
  3.0000000E+02
  3.0000000E+02
  3.0000000E+02
  3.0000000E+02
  3.0000000E+02
  3.0000000E+02
  3.0000000E+02
  3.0000000E+02
  3.0000000E+02
  3.0000000E+02
  3.0000000E+02
  3.0000000E+02
  3.0000000E+02
  3.0000000E+02
  3.0000000E+02
  3.0000000E+02
  3.0000000E+02
  3.0000000E+02
  3.0000000E+02
  3.0000000E+02
  3.0000000E+02
  3.0000000E+02
  3.0000000E+02
  3.0000000E+02
  3.0000000E+02
  3.0000000E+02
  3.0000000E+02
  3.0000000E+02
  3.0000000E+02
  3.0000000E+02
  3.0000000E+02
  3.0000000E+02
  3.0000000E+02
  3.0000000E+02
  3.0000000E+02
  3.0000000E+02
  3.0000000E+02
  3.0000000E+02
  3.0000000E+02
  3.0000000E+02
  3.0000000E+02
  3.0000000E+02
  3.0000000E+02
  3.0000000E+02
  3.0000000E+02
  3.0000000E+02
  3.0000000E+02
  3.0000000E+02
  3.0000000E+02
  3.0000000E+02
  3.0000000E+02
  3.0000000E+02
  3.0000000E+02
  3.0000000E+02
  3.0000000E+02
  3.0000000E+02
  3.0000000E+02
  3.0000000E+02
  3.0000000E+02
  3.0000000E+02
  3.0000000E+02
  3.0000000E+02
  3.0000000E+02
  3.0000000E+02
  3.0000000E+02
  3.0000000E+02
  3.0000000E+02
  3.0000000E+02
  3.0000000E+02
  3.0000000E+02
  3.0000000E+02
  3.0000000E+02
  3.0000000E+02
  3.0000000E+02
  3.0000000E+02
  3.0000000E+02
  3.0000000E+02
  3.0000000E+02
  3.0000000E+02
  3.0000000E+02
  3.0000000E+02
  3.0000000E+02
  3.0000000E+02
  3.0000000E+02
  3.0000000E+02
  3.0000000E+02
  3.0000000E+02
  3.0000000E+02
  3.0000000E+02
  3.0000000E+02
  3.0000000E+02
  3.0000000E+02
  3.0000000E+02
  3.0000000E+02
  3.0000000E+02
  3.0000000E+02
  3.0000000E+02
  3.0000000E+02
  3.0000000E+02
  3.0000000E+02
  3.0000000E+02
  3.0000000E+02
  3.0000000E+02
  3.0000000E+02
  3.0000000E+02
  3.0000000E+02
  3.0000000E+02
  3.0000000E+02
  3.0000000E+02
  3.0000000E+02
  3.0000000E+02
  3.0000000E+02
  3.0000000E+02
  3.0000000E+02
  3.0000000E+02
  3.0000000E+02
  3.0000000E+02
  3.0000000E+02
  3.0000000E+02
  3.0000000E+02
  3.0000000E+02
  3.0000000E+02
  3.0000000E+02
  3.0000000E+02
  3.0000000E+02
  3.0000000E+02
  3.0000000E+02
  3.0000000E+02
  3.0000000E+02
  3.0000000E+02
  3.0000000E+02
  3.0000000E+02
  3.0000000E+02
  3.0000000E+02
  3.0000000E+02
  3.0000000E+02
  3.0000000E+02
  3.0000000E+02
  3.0000000E+02
  3.0000000E+02
  3.0000000E+02
  3.0000000E+02
  3.0000000E+02
  3.0000000E+02
  3.0000000E+02
  3.0000000E+02
  3.0000000E+02
  3.0000000E+02
  3.0000000E+02
  3.0000000E+02
  3.0000000E+02
  3.0000000E+02
  3.0000000E+02
  3.0000000E+02
  3.0000000E+02
  3.0000000E+02
  3.0000000E+02
  3.0000000E+02
  3.0000000E+02
  3.0000000E+02
  3.0000000E+02
  3.0000000E+02
  3.0000000E+02
  3.0000000E+02
  3.0000000E+02
  3.0000000E+02
  3.0000000E+02
  3.0000000E+02
  3.0000000E+02
  3.0000000E+02
  3.0000000E+02
  3.0000000E+02
  3.0000000E+02
  3.0000000E+02
  3.0000000E+02
  3.0000000E+02
  3.0000000E+02
  3.0000000E+02
  3.0000000E+02
  3.0000000E+02
  3.0000000E+02
  3.0000000E+02
  3.0000000E+02
  3.0000000E+02
  3.0000000E+02
  3.0000000E+02
  3.0000000E+02
  3.0000000E+02
  3.0000000E+02
  3.0000000E+02
  3.0000000E+02
  3.0000000E+02
  3.0000000E+02
  3.0000000E+02
  3.0000000E+02
  3.0000000E+02
  3.0000000E+02
  3.0000000E+02
  3.0000000E+02
  3.0000000E+02
  3.0000000E+02
  3.0000000E+02
  3.0000000E+02
  3.0000000E+02
  3.0000000E+02
  3.0000000E+02
  3.0000000E+02
  3.0000000E+02
  3.0000000E+02
  3.0000000E+02
  3.0000000E+02
  3.0000000E+02
  3.0000000E+02
  3.0000000E+02
  3.0000000E+02
  3.0000000E+02
  3.0000000E+02
  3.0000000E+02
  3.0000000E+02
  3.0000000E+02
  3.0000000E+02
  3.0000000E+02
  3.0000000E+02
  3.0000000E+02
  3.0000000E+02
  3.0000000E+02
  3.0000000E+02
  3.0000000E+02
  3.0000000E+02
  3.0000000E+02
  3.0000000E+02
  3.0000000E+02
  3.0000000E+02
  3.0000000E+02
  3.0000000E+02
  3.0000000E+02
  3.0000000E+02
  3.0000000E+02
  3.0000000E+02
  3.0000000E+02
  3.0000000E+02
  3.0000000E+02
  3.0000000E+02
  3.0000000E+02
  3.0000000E+02
  3.0000000E+02
  3.0000000E+02
  3.0000000E+02
  3.0000000E+02
  3.0000000E+02
  3.0000000E+02
  3.0000000E+02
  3.0000000E+02
  3.0000000E+02
  3.0000000E+02
  3.0000000E+02
  3.0000000E+02
  3.0000000E+02
  3.0000000E+02
  3.0000000E+02
  3.0000000E+02
  3.0000000E+02
  3.0000000E+02
  3.0000000E+02
  3.0000000E+02
  3.0000000E+02
  3.0000000E+02
  3.0000000E+02
  3.0000000E+02
  3.0000000E+02
  3.0000000E+02
  3.0000000E+02
  3.0000000E+02
  3.0000000E+02
  3.0000000E+02
  3.0000000E+02
  3.0000000E+02
  3.0000000E+02
  3.0000000E+02
  3.0000000E+02
  3.0000000E+02
  3.0000000E+02
  3.0000000E+02
  3.0000000E+02
  3.0000000E+02
  3.0000000E+02
  3.0000000E+02
  3.0000000E+02
  3.0000000E+02
  3.0000000E+02
  3.0000000E+02
  3.0000000E+02
  3.0000000E+02
  3.0000000E+02
  3.0000000E+02
  3.0000000E+02
  3.0000000E+02
  3.0000000E+02
  3.0000000E+02
  3.0000000E+02
  3.0000000E+02
  3.0000000E+02
  3.0000000E+02
  3.0000000E+02
  3.0000000E+02
  3.0000000E+02
  3.0000000E+02
  3.0000000E+02
  3.0000000E+02
  3.0000000E+02
  3.0000000E+02
  3.0000000E+02
  3.0000000E+02
  3.0000000E+02
  3.0000000E+02
  3.0000000E+02
  3.0000000E+02
  3.0000000E+02
  3.0000000E+02
  3.0000000E+02
  3.0000000E+02
  3.0000000E+02
  3.0000000E+02
  3.0000000E+02
  3.0000000E+02
  3.0000000E+02
  3.0000000E+02
  3.0000000E+02
  3.0000000E+02
  3.0000000E+02
  3.0000000E+02
  3.0000000E+02
  3.0000000E+02
  3.0000000E+02
  3.0000000E+02
  3.0000000E+02
  3.0000000E+02
  3.0000000E+02
  3.0000000E+02
  3.0000000E+02
  3.0000000E+02
  3.0000000E+02
  3.0000000E+02
  3.0000000E+02
  3.0000000E+02
  3.0000000E+02
  3.0000000E+02
  3.0000000E+02
  3.0000000E+02
  3.0000000E+02
  3.0000000E+02
  3.0000000E+02
  3.0000000E+02
  3.0000000E+02
  3.0000000E+02
  3.0000000E+02
  3.0000000E+02
  3.0000000E+02
  3.0000000E+02
  3.0000000E+02
  3.0000000E+02
  3.0000000E+02
  3.0000000E+02
  3.0000000E+02
  3.0000000E+02
  3.0000000E+02
  3.0000000E+02
  3.0000000E+02
  3.0000000E+02
  3.0000000E+02
  3.0000000E+02
  3.0000000E+02
  3.0000000E+02
  3.0000000E+02
  3.0000000E+02
  3.0000000E+02
  3.0000000E+02
  3.0000000E+02
  3.0000000E+02
  3.0000000E+02
  3.0000000E+02
  3.0000000E+02
  3.0000000E+02
  3.0000000E+02
  3.0000000E+02
  3.0000000E+02
  3.0000000E+02
  3.0000000E+02
  3.0000000E+02
  3.0000000E+02
  3.0000000E+02
  3.0000000E+02
  3.0000000E+02
  3.0000000E+02
  3.0000000E+02
  3.0000000E+02
  3.0000000E+02
  3.0000000E+02
  3.0000000E+02
  3.0000000E+02
  3.0000000E+02
  3.0000000E+02
  3.0000000E+02
  3.0000000E+02
  3.0000000E+02
  3.0000000E+02
  3.0000000E+02
  3.0000000E+02
  3.0000000E+02
  3.0000000E+02
  3.0000000E+02
  3.0000000E+02
  3.0000000E+02
  3.0000000E+02
  3.0000000E+02
  3.0000000E+02
  3.0000000E+02
  3.0000000E+02
  3.0000000E+02
  3.0000000E+02
  3.0000000E+02
  3.0000000E+02
  3.0000000E+02
  3.0000000E+02
  3.0000000E+02
  3.0000000E+02
  3.0000000E+02
  3.0000000E+02
  3.0000000E+02
  3.0000000E+02
  3.0000000E+02
  3.0000000E+02
  3.0000000E+02
  3.0000000E+02
  3.0000000E+02
  3.0000000E+02
  3.0000000E+02
  3.0000000E+02
  3.0000000E+02
  3.0000000E+02
  3.0000000E+02
  3.0000000E+02
  3.0000000E+02
  3.0000000E+02
  3.0000000E+02
  3.0000000E+02
  3.0000000E+02
  3.0000000E+02
  3.0000000E+02
  3.0000000E+02
  3.0000000E+02
  3.0000000E+02
  3.0000000E+02
  3.0000000E+02
  3.0000000E+02
  3.0000000E+02
  3.0000000E+02
  3.0000000E+02
  3.0000000E+02
  3.0000000E+02
  3.0000000E+02
  3.0000000E+02
  3.0000000E+02
  3.0000000E+02
  3.0000000E+02
  3.0000000E+02
  3.0000000E+02
  3.0000000E+02
  3.0000000E+02
  3.0000000E+02
  3.0000000E+02
  3.0000000E+02
  3.0000000E+02
  3.0000000E+02
  3.0000000E+02
  3.0000000E+02
  3.0000000E+02
  3.0000000E+02
  3.0000000E+02
  3.0000000E+02
  3.0000000E+02
  3.0000000E+02
  3.0000000E+02
  3.0000000E+02
  3.0000000E+02
  3.0000000E+02
  3.0000000E+02
  3.0000000E+02
  3.0000000E+02
  3.0000000E+02
  3.0000000E+02
  3.0000000E+02
  3.0000000E+02
  3.0000000E+02
  3.0000000E+02
  3.0000000E+02
  3.0000000E+02
  3.0000000E+02
  3.0000000E+02
  3.0000000E+02
  3.0000000E+02
  3.0000000E+02
  3.0000000E+02
  3.0000000E+02
  3.0000000E+02
  3.0000000E+02
  3.0000000E+02
  3.0000000E+02
  3.0000000E+02
  3.0000000E+02
  3.0000000E+02
  3.0000000E+02
  3.0000000E+02
  3.0000000E+02
  3.0000000E+02
  3.0000000E+02
  3.0000000E+02
  3.0000000E+02
  3.0000000E+02
  3.0000000E+02
  3.0000000E+02
  3.0000000E+02
  3.0000000E+02
  3.0000000E+02
  3.0000000E+02
  3.0000000E+02
  3.0000000E+02
  3.0000000E+02
  3.0000000E+02
  3.0000000E+02
  3.0000000E+02
  3.0000000E+02
  3.0000000E+02
  3.0000000E+02
  3.0000000E+02
  3.0000000E+02
  3.0000000E+02
  3.0004851E+02
  3.0006748E+02
  3.0013306E+02
  3.0027216E+02
  3.0053135E+02
  3.0097662E+02
  3.0168769E+02
  3.0274362E+02
  3.0419870E+02
  3.0605183E+02
  3.0821811E+02
  3.1051506E+02
  3.1267489E+02
  3.1438738E+02
  3.1536770E+02
  3.1543055E+02
  3.1454463E+02
  3.1284776E+02
  3.1061405E+02
  3.0818203E+02
  3.0586990E+02
  3.0390840E+02
  3.0240749E+02
  3.0136854E+02
  3.0071574E+02
  3.0034357E+02
  3.0015043E+02
  3.0005963E+02
  3.0002117E+02
  3.0000649E+02
  3.0000149E+02
  3.0000007E+02
  2.9999980E+02
  2.9999982E+02
  2.9999989E+02
  2.9999995E+02
  2.9999998E+02
  2.9999999E+02
  3.0000000E+02
  3.0000000E+02
  3.0000000E+02
  3.0000000E+02
  3.0000000E+02
  3.0000000E+02
  3.0000000E+02
  3.0000000E+02
  3.0000000E+02
  3.0000000E+02
  3.0000000E+02
  3.0000000E+02
  3.0000000E+02
  3.0005738E+02
  3.0007996E+02
  3.0015825E+02
  3.0032482E+02
  3.0063645E+02
  3.0117419E+02
  3.0203715E+02
  3.0332566E+02
  3.0511220E+02
  3.0740367E+02
  3.1010495E+02
  3.1299911E+02
  3.1575855E+02
  3.1799441E+02
  3.1933912E+02
  3.1954032E+02
  3.1853404E+02
  3.1647248E+02
  3.1368915E+02
  3.1061028E+02
  3.0764855E+02
  3.0511299E+02
  3.0316095E+02
  3.0180136E+02
  3.0094336E+02
  3.0045310E+02
  3.0019866E+02
  3.0007869E+02
  3.0002793E+02
  3.0000871E+02
  3.0000218E+02
  3.0000029E+02
  2.9999991E+02
  2.9999990E+02
  2.9999994E+02
  2.9999998E+02
  2.9999999E+02
  3.0000000E+02
  3.0000000E+02
  3.0000000E+02
  3.0000000E+02
  3.0000000E+02
  3.0000000E+02
  3.0000000E+02
  3.0000000E+02
  3.0000000E+02
  3.0000000E+02
  3.0000000E+02
  3.0000000E+02
  3.0000000E+02
  3.0000000E+02
  3.0008448E+02
  3.0011820E+02
  3.0023550E+02
  3.0048661E+02
  3.0095988E+02
  3.0178337E+02
  3.0311700E+02
  3.0512842E+02
  3.0794900E+02
  3.1161387E+02
  3.1600039E+02
  3.2078811E+02
  3.2546464E+02
  3.2939410E+02
  3.3194396E+02
  3.3263963E+02
  3.3130314E+02
  3.2812221E+02
  3.2360530E+02
  3.1846131E+02
  3.1341611E+02
  3.0903140E+02
  3.0561262E+02
  3.0321168E+02
  3.0168757E+02
  3.0081120E+02
  3.0035586E+02
  3.0014153E+02
  3.0005019E+02
  3.0001570E+02
  3.0000415E+02
  3.0000074E+02
  2.9999997E+02
  2.9999991E+02
  2.9999995E+02
  2.9999998E+02
  3.0000000E+02
  3.0000000E+02
  3.0000000E+02
  3.0000000E+02
  3.0000000E+02
  3.0000000E+02
  3.0000000E+02
  3.0000000E+02
  3.0000000E+02
  3.0000000E+02
  3.0000000E+02
  3.0000000E+02
  3.0000000E+02
  3.0000000E+02
  3.0000000E+02
  3.0013086E+02
  3.0018375E+02
  3.0036835E+02
  3.0076566E+02
  3.0151953E+02
  3.0284106E+02
  3.0499883E+02
  3.0828279E+02
  3.1293480E+02
  3.1904995E+02
  3.2646957E+02
  3.3470215E+02
  3.4291531E+02
  3.5003086E+02
  3.5492376E+02
  3.5669104E+02
  3.5491228E+02